 
        ______________________________________
       |                                      |
       |           ==================         |
       |                 x T B                |
       |           ==================         |
       |               S. Grimme              |
       |        Universitaet Bonn, MCTC       |
       |         2015-18, Version 5.8.2       |
       |      Sat Jul 14 21:47:18 CEST 2018   |
       |______________________________________|
 
        This code comes without any warranty
        for non-commercial, academia use only.
        Preliminary GFN2 test version.
        Cite GFN-xTB work as:
        S. Grimme, C. Bannwarth, P. Shushkov
        JCTC, 13 (2017) 1989-2009
        for GFN2:
        C. Bannwarth, S. Ehlert, S. Grimme
        to be published.
        sTDA-xTB:
        S. Grimme  &  C. Bannwarth, JCP 145 (2016) 054103
        in the mass-spec context additionally:
        V. Asgeirsson, C.Bauer, S. Grimme, Chem. Sci. 8 (2017) 4879
 
        with help from
        P. Shushkov, G. Brandenburg, S. Dohm, J. Pisarek,
        F. März, M. Checinski, S. Ehrlich, S. Spicher, 
        P. Pracht, E. Caldeweyher, S. Ehlert, and C. Bannwarth.
 
        usage        :
        xtb <coord_file> [options]
        where <coord_file> is a valid file of TM)
        (*coord, Bohr) or xmol (*xyz, Angstroem)
        format.

        options:
        -chrg <int>   : molecular charge
        -uhf  <int>   : # of unpaired electrons(=2*S)
        -nox          : skip second, extended part in sTDA-xTB
        -pop          : do population analysis
                      : (default for -nox)
        -mowr <real>  : cut MO write above (def.3 Eh)
        -molden       : write formatted molden file
        -parx <file>  : read parameters for sTDA-xTB
                        calc (def:~/.param_stda2.xtb)
        -parv <file>  : read parameters for vTB part in
                        sTDA-xTB (def: ~/.param_stda1.xtb)
        -xtemp <real> : el. temp for xTB (def. 0 K)
        -etemp <real> : el. temp for GFN (def. 300 K)
        -fod          : calculate the FOD and write
                        molden.input file with
                        appropriate occupations
                        for plotting. Def. T=12500 K
 
        -gfn1         : use GFN-xTB
        -gfn2         : use GFN2-xTB
        -gfn2d3       : GFN2-xTB with D3 instead of D4
        -grad         : GFNn-xTB gradient
        -acc <real>   : GFNn-xTB accuracy (def. 1.0)
        -opt [level]  : optimize at GFNn-xTB
                      : level=crude,vloose,loose,
                      :       tight,vtight
        -hess         : compute Hessian at GFNn-xTB
        -ohess        : optimize and compute Hessian
        -omd          : optimize and do MD
        -siman        : conformational search
        -screen       : opt. loop over ensemble
        -gmd          : annealed MD for GMD procedure
        -modef        : vib mode following
        -gbsa [string1] [string2]
                        use GBSA implicit solvent
                        for solvent [string1] and
                        solvation state [string2]=
                        reference, bar1M (default=1M)
        additional GFN/opt/MD/siman options read from
        $XTBHOME/.xtbrc or $set in coordinate file
 
       spin and charge state information can be on:
       <.CHRG> (charge) and <.UHF> (=nalpha-nbeta)
       -uhf and -chrg override the file info.
       useful machine settings:
       setenv MKL_NUM_THREADS <NCORE_ON_YOUR_MACHINE>
       setenv OMP_STACKSIZE 500m
       limit stacksize unlimited
 
       total energies in Eh, gaps/HL energies in eV
       please read REVISION and HOWTO files carefully
          60  days left until this code expires
 =============================
  # OMP threads =           1
 =============================
 
 xtbhome directory:/opt/xtb/5.8.1/
 
 argument            1 :-opt
 argument            2 :-gfn2
 
 name of molecule           :
 comment line               :
 number of atoms            :    12
 number of electrons        :    26
 charge                     :  0
 spin                       : 0.0
 first test random number   :  0.8340
 
 
 -----------------------------------------
  G F N (Geometry, Frequency, Non-covalent)
        parametrization, gfnver=           3
     D4 dispersion model
 /opt/xtb/5.8.1/.param_gfn2.xtb
 -----------------------------------------
      method parameters     
 k(s)        :  1.8500
 k(p)        :  2.2300
 k(d)        :  2.2300
 k(f)        :  2.0000
 kEN (H0ij)  : -2.0000
 D3 a1       :  0.5200
 D3 a2       :  5.0000
 D3 s8       :  2.7000
 D3atm       :  5.0000
 alphaj      :  2.0000
 
     -------------------------
     ! NO SOLVENT MODEL USED !
     -------------------------
 
 doing EN charges ...
 sum q :  0.1110223D-14
 point charge moment (au)
     X       Y       Z   
  -0.2132  -0.1562   0.0137  total (Debye):    0.673
 
            Z     q(EN)     CN     RAES       Cart. coordinates
     1  C   4.0   -0.12    3.99    3.60     2.86819     2.49334     0.37851
     2  C   4.0   -0.08    4.02    3.66     5.73547     2.48138     0.07173
     3  C   4.0   -0.02    4.04    3.69     6.72249    -0.17780    -0.46844
     4  O   6.0   -0.16    2.02    1.83     9.35356    -0.09626    -0.73087
     5  H   1.0    0.04    0.99    1.43     2.21230     4.44549     0.78091
     6  H   1.0    0.04    0.99    1.43     2.29938     1.25179     1.97304
     7  H   1.0    0.04    0.99    1.43     1.94281     1.82255    -1.38239
     8  H   1.0    0.04    1.00    1.43     6.61593     3.20335     1.83732
     9  H   1.0    0.04    1.00    1.43     6.26066     3.75759    -1.51252
    10  H   1.0    0.04    0.99    1.43     6.20684    -1.43659     1.13773
    11  H   1.0    0.04    0.99    1.43     5.85959    -0.89471    -2.24773
    12  H   1.0    0.09    1.01    1.43     9.91613    -1.87767    -0.89760
 
  Z AO/shell   Hii/eV     exponent
  1     Wed Apr 25 08:07:45 CEST 2018   EN: 2.200 GM2: 0.406  GM3: 0.0800  RAES: 1.40
     1s    -10.707211    1.230000
  6     Wed Apr 25 08:07:45 CEST 2018   EN: 2.550 GM2: 0.538  GM3: 0.1500  RAES: 3.00
     2s    -13.970922    2.096432
     2p    -10.063292    1.800000
  8     Wed Apr 25 08:07:45 CEST 2018   EN: 3.440 GM2: 0.452  GM3:-0.0517  RAES: 1.80
     2s    -20.229985    2.439742
     2p    -15.503117    2.137023
 no old-style atom pair restraing (fixing) potential
 
             =======================================
             |                                     |
             |        S C C  calculation           |
             |                                     |
             =======================================
 #proc     :            1
 Ncao      :           24
 Nao       :           24
 Nel       :           26
 T(el)     :   300.0
 intcut    :    25.0
 scfconv   :  0.100E-05
   qconv   :  0.100E-03
 intneglect:  0.100E-07
 broydamp  :      0.400
 Nshell    :           16
 iter      E             dE          RMSdq      gap      omega  full diag
   1    -14.6671439 -0.146671E+02  0.426E+00   12.30       0.0  T
   2    -14.6978236 -0.306798E-01  0.207E+00   12.20       1.0  T
   3    -14.7004641 -0.264041E-02  0.603E-01   11.99       1.0  T
   4    -14.7006201 -0.156006E-03  0.223E-01   12.01       1.0  T
   5    -14.7006730 -0.529767E-04  0.589E-02   12.06       1.0  T
   6    -14.7006776 -0.453491E-05  0.275E-02   12.07       1.0  T
   7    -14.7006779 -0.334286E-06  0.533E-03   12.07       5.4  T
   8    -14.7006780 -0.435573E-07  0.240E-03   12.07      12.0  T
   9    -14.7006780 -0.214891E-08  0.261E-04   12.07     110.6  T
  10    -14.7006780 -0.561720E-10  0.741E-05   12.07     389.7  T
speedup  0.77
cpu  time for SCC    0.00 s
wall time for SCC    0.01 s

          eigenvalues
 #    :           1          2          3          4          5          6          7          8
 occ. :        2.000      2.000      2.000      2.000      2.000      2.000      2.000      2.000
 eps  :       -18.675    -17.091    -16.299    -15.569    -15.040    -14.522    -14.018    -13.291
 #    :           9         10         11         12         13         14         15         16
 occ. :        2.000      2.000      2.000      2.000      2.000      0.000      0.000      0.000
 eps  :       -12.818    -12.452    -11.896    -11.841    -11.074      0.996      2.836      2.962
 #    :          17         18         19         20         21         22         23         24
 occ. :        0.000      0.000      0.000      0.000      0.000      0.000      0.000      0.000
 eps  :         3.039      3.539      4.038      4.103      5.265      5.915      6.277      7.316
 

   #   Z            q   n(s)   n(p)   n(d)      C6AA      α(0)    relVol
   1   6 C     -0.102  1.050  3.052  0.000    22.673     6.815     0.552
   2   6 C     -0.056  1.056  3.001  0.000    21.705     6.650     0.538
   3   6 C      0.091  1.039  2.870  0.000    19.423     6.340     0.513
   4   8 O     -0.438  1.719  4.718  0.000    22.104     6.361     1.224
   5   1 H      0.039  0.961  0.000  0.000     2.454     2.450     0.485
   6   1 H      0.033  0.967  0.000  0.000     2.539     2.492     0.493
   7   1 H      0.034  0.966  0.000  0.000     2.533     2.489     0.492
   8   1 H      0.045  0.955  0.000  0.000     2.379     2.412     0.477
   9   1 H      0.045  0.955  0.000  0.000     2.370     2.408     0.476
  10   1 H      0.011  0.989  0.000  0.000     2.870     2.649     0.524
  11   1 H      0.013  0.987  0.000  0.000     2.842     2.636     0.522
  12   1 H      0.285  0.715  0.000  0.000     0.708     1.321     0.261

 Mol. C6AA /au*bohr^6 :        930.973471
 Mol. C8AA /au*bohr^6 :      18799.303799
 Mol. a(0) /au        :         45.022025

 
 Wiberg/Mayer (AO) data. WBOs > 0.1 written file <wbo>
 largest (>0.05) Wiberg bond orders for each atom
           total WBO             WBO to atom ...
     1  C   3.997    C    2 1.020    H    7 0.987    H    6 0.987    H    5 0.987
     2  C   3.995    C    1 1.020    C    3 1.004    H    8 0.976    H    9 0.976
     3  C   3.958    C    2 1.004    O    4 0.999    H   10 0.971    H   11 0.969
     4  O   1.955    C    3 0.999    H   12 0.904
     5  H   0.998    C    1 0.987
     6  H   0.999    C    1 0.987
     7  H   0.999    C    1 0.987
     8  H   0.998    C    2 0.976
     9  H   0.998    C    2 0.976
    10  H   1.000    C    3 0.971
    11  H   1.000    C    3 0.969
    12  H   0.919    O    4 0.904
 
molecular dipole:
                 x           y           z       tot (Debye)
 q only:       -0.320      -0.340       0.026
   full:        0.698      -0.577       0.017       1.775
molecular quadrupole (traceless):
                xx          xy          yy          xz          yz          zz
 q only:       -5.079      -6.151       3.697       0.281       0.746       1.382
  q+dip:       -8.462      -9.045       4.982       0.669       0.762       3.480
   full:       -7.515      -9.260       4.912       0.446       0.892       2.603
 SCC converged in           10  cycles
 
SCC energy    :     -14.7006780
rep           :       0.1473629
ES            :       0.0258054
AES           :       0.0039603
AXC           :       0.0047952
disp          :      -0.0048055
XB            :       0.0000000
fix           :       0.0000000
total E       :     -14.5533132
atomizationE  :       2.7710245     1738.84
(atE without considerung molecular charge,
 total energy contains solvation terms)
H-L gap (eV)  :         12.0695
 
             =======================================
             |                                     |
             |    Approximate Normal Coordinate    |
             |   Rational Function Optimization    |
             |                                     |
             =======================================
Ref. for RF algo: F.Eckert, P.Pulay, H.-J.Werner
                  J.Comput.Chem. 18 (1997) 1473.
ANC idea implemented by S. Grimme in the 2000ers (unpublished)
restraining potential by S. Ehrlich.
dumping coords to <xtbopt.coord> and <xtbopt.log
 optlevel               0
 Maxcycle             200
 Maxmicro              20
 Econv         5.000000000000000E-006
 Gconv         1.000000000000000E-003
 Maxdispl       2.00000000000000     
 Hlow          1.000000000000000E-002
 S6             20.0000000000000     
 Nvar               30

generating ANC from model Hessian ...
 Shifting diagonal of input Hessian by   3.621973904287140E-003
 Lowest  eigenvalues of input Hessian
   -0.000000   -0.000000   -0.000000    0.000000    0.000000    0.000000
    0.010000    0.011970    0.013185    0.031075    0.036938    0.040831
    0.051121    0.051998    0.056479    0.066502    0.071705    0.086771
 Highest eigenvalues
    1.048546    1.113575    1.120879    1.194258    1.219044    1.466907
 
cpu  time for ANC gen    0.01 s
wall time for ANC gen    0.03 s
................................................................................
.............................. CYCLE    1 ......................................
................................................................................
  q data taken from xtbrestart
  CAMM data taken from xtbrestart
   1    -14.7006780 -0.147007E+02  0.177E-05   12.07       0.0  T
   2    -14.7006780 -0.355271E-12  0.105E-05   12.07    2750.6  T
   3    -14.7006780 -0.728306E-13  0.369E-06   12.07    7818.9  T
speedup  1.97
cpu  time for SCC    0.00 s
wall time for SCC    0.00 s
speedup  0.00
cpu  time for grad    0.00 s
wall time for grad    0.00 s
 E :    -14.55331321  G :  0.051172    pred/act E change:  0.000D+00 -0.104D-09
Maxdispl :   0.0630   ||displ|| :   0.1493   Lambda : -0.469D-02
Largest |displ|/coords:  0.0630 (  20)  0.0591 (  12)  0.0570 (  19)
................................................................................
.............................. CYCLE    2 ......................................
................................................................................
   1    -14.7191060 -0.147191E+02  0.168E-01   12.23       0.0  T
   2    -14.7191362 -0.301583E-04  0.956E-02   12.22       1.0  T
   3    -14.7191406 -0.447970E-05  0.284E-02   12.21       1.0  T
   4    -14.7191412 -0.564806E-06  0.802E-03   12.21       3.6  T
   5    -14.7191413 -0.748557E-07  0.380E-03   12.21       7.6  T
speedup  0.00
cpu  time for SCC    0.00 s
wall time for SCC    0.00 s
speedup  0.00
cpu  time for grad    0.00 s
wall time for grad    0.00 s
 E :    -14.55611591  G :  0.015366    pred/act E change:  0.000D+00 -0.280D-02
Maxdispl :   0.0508   ||displ|| :   0.0670   Lambda : -0.444D-03
Largest |displ|/coords:  0.0508 (   5)  0.0219 (   3)  0.0200 (  20)
................................................................................
.............................. CYCLE    3 ......................................
................................................................................
   1    -14.7246385 -0.147246E+02  0.789E-02   12.28       0.0  T
   2    -14.7246449 -0.640553E-05  0.459E-02   12.28       1.0  T
   3    -14.7246462 -0.129293E-05  0.129E-02   12.28       2.2  T
   4    -14.7246464 -0.183542E-06  0.354E-03   12.28       8.1  T
   5    -14.7246464 -0.922746E-08  0.195E-03   12.28      14.8  T
speedup  1.97
cpu  time for SCC    0.00 s
wall time for SCC    0.00 s
speedup  0.00
cpu  time for grad    0.00 s
wall time for grad    0.00 s
 E :    -14.55634829  G :  0.002148    pred/act E change: -0.240D-02 -0.232D-03
Maxdispl :   0.0261   ||displ|| :   0.0348   Lambda : -0.323D-04
Largest |displ|/coords:  0.0261 (   3)  0.0115 (   1)  0.0100 (   4)
................................................................................
.............................. CYCLE    4 ......................................
................................................................................
   1    -14.7243895 -0.147244E+02  0.378E-02   12.24       0.0  T
   2    -14.7243898 -0.247464E-06  0.231E-02   12.24       1.2  T
   3    -14.7243899 -0.981528E-07  0.216E-03   12.24      13.4  T
   4    -14.7243899 -0.704190E-08  0.114E-03   12.24      25.4  T
   5    -14.7243899 -0.951184E-09  0.518E-04   12.24      55.7  T
   6    -14.7243899 -0.209559E-09  0.105E-04   12.24     274.7  T
speedup  1.78
cpu  time for SCC    0.00 s
wall time for SCC    0.00 s
speedup  0.00
cpu  time for grad    0.00 s
wall time for grad    0.00 s
 E :    -14.55637094  G :  0.000894    pred/act E change: -0.223D-03 -0.227D-04
Maxdispl :   0.0228   ||displ|| :   0.0371   Lambda : -0.161D-04
Largest |displ|/coords:  0.0228 (   3)  0.0164 (   1)  0.0151 (   4)
................................................................................
.............................. CYCLE    5 ......................................
................................................................................
   1    -14.7240005 -0.147240E+02  0.463E-02   12.22       0.0  T
   2    -14.7240007 -0.222643E-06  0.285E-02   12.22       1.0  T
   3    -14.7240008 -0.101991E-06  0.195E-03   12.22      14.8  T
   4    -14.7240008 -0.623404E-08  0.111E-03   12.22      25.9  T
   5    -14.7240008 -0.611522E-09  0.407E-04   12.22      70.8  T
   6    -14.7240008 -0.147143E-09  0.101E-04   12.22     286.6  T
speedup  1.78
cpu  time for SCC    0.00 s
wall time for SCC    0.00 s
speedup  0.00
cpu  time for grad    0.00 s
wall time for grad    0.00 s
 E :    -14.55638069  G :  0.000770    pred/act E change: -0.162D-04 -0.975D-05
Maxdispl :   0.0113   ||displ|| :   0.0205   Lambda : -0.464D-05
Largest |displ|/coords:  0.0113 (   4)  0.0109 (   1)  0.0078 (   2)
................................................................................
.............................. CYCLE    6 ......................................
................................................................................
   1    -14.7239643 -0.147240E+02  0.294E-02   12.22       0.0  T
   2    -14.7239644 -0.632966E-07  0.182E-02   12.22       1.6  T
   3    -14.7239644 -0.395375E-07  0.968E-04   12.22      29.8  T
   4    -14.7239644 -0.128294E-09  0.403E-04   12.22      71.6  T
speedup  2.18
cpu  time for SCC    0.00 s
wall time for SCC    0.00 s
speedup  0.00
cpu  time for grad    0.00 s
wall time for grad    0.00 s
 E :    -14.55638433  G :  0.000699    pred/act E change: -0.804D-05 -0.364D-05
Maxdispl :   0.0182   ||displ|| :   0.0315   Lambda : -0.610D-05
Largest |displ|/coords:  0.0182 (   4)  0.0169 (   1)  0.0129 (   2)
ancopt converged in          6 cycles
total energy gain (kcal):     -1.9272
================
 final structure:
================
    12
        -14.55638433
C           1.51374993409431    1.33139778587887    0.19927281979160
C           3.02784566290880    1.30327526416028    0.04271925258250
C           3.54350930563507   -0.10477745272061   -0.23537122195370
O           4.94883373482566   -0.04667522761892   -0.36625899093790
H           1.17410982244636    2.34460663409381    0.39846267196699
H           1.20182605394798    0.69537443826539    1.02521809884346
H           1.02779990887351    0.97763633771062   -0.70771327376871
H           3.50833797375176    1.67127960714270    0.95031026986899
H           3.33468339713600    1.94946736053592   -0.78087025356745
H           3.26203817406596   -0.77356581429383    0.59141645071180
H           3.08825031552411   -0.49154072336992   -1.15948258981964
H           5.29119571679048   -0.93339820978429   -0.51879323371794
 
 Bond Distances (Angstroems)
 ---------------------------
C1-C2=1.5224         C1-H5=1.0870         C1-H6=1.0881         C1-H7=1.0881         C2-C1=1.5224         C2-C3=1.5251         
C2-H8=1.0909         C2-H9=1.0909         C3-C2=1.5251         C3-O4=1.4126         C3-H10=1.1000        C3-H11=1.1004        
O4-C3=1.4126         O4-H12=0.9627        H5-C1=1.0870         H6-C1=1.0881         H7-C1=1.0881         H8-C2=1.0909         
H9-C2=1.0909         H10-C3=1.1000        H11-C3=1.1004        H12-O4=0.9627        
 C  H  Rav=1.0922 sigma=0.0052  Rmin=1.0870  Rmax=1.1004     7
 C  C  Rav=1.5238 sigma=0.0013  Rmin=1.5224  Rmax=1.5251     2
 O  H  Rav=0.9627 sigma=0.0000  Rmin=0.9627  Rmax=0.9627     1
 O  C  Rav=1.4126 sigma=0.0000  Rmin=1.4126  Rmax=1.4126     1
 
 selected bond angles (degree)
 --------------------
H5-C1-C2=110.29                H6-C1-C2=110.63                H6-C1-H5=108.43                H7-C1-C2=110.64                
H7-C1-H5=108.44                H7-C1-H6=108.34                C3-C2-C1=111.84                H8-C2-C1=110.26                
H8-C2-C3=108.31                H9-C2-C1=110.27                H9-C2-C3=108.31                H9-C2-H8=107.72                
O4-C3-C2=108.38                H10-C3-C2=109.74               H10-C3-O4=110.44               H11-C3-C2=109.74               
H11-C3-O4=110.38               H11-C3-H10=108.16              H12-O4-C3=109.31               
 
 selected dihedral angles (degree)
 ---------------------------------
C3-C2-C1-H5=179.88            C3-C2-C1-H6= 59.92            C3-C2-C1-H7=299.85            H8-C2-C1-H5= 59.29            
H8-C2-C1-H6=299.33            H8-C2-C1-H7=179.26            H9-C2-C1-H5=300.46            H9-C2-C1-H6=180.50            
H9-C2-C1-H7= 60.43            O4-C3-C2-C1=180.04            O4-C3-C2-H8=301.75            O4-C3-C2-H9= 58.32            
H10-C3-C2-C1=300.71           H10-C3-C2-H8= 62.42           H10-C3-C2-H9=178.99           H11-C3-C2-C1= 59.43           
H11-C3-C2-H8=181.15           H11-C3-C2-H9=297.71           H12-O4-C3-C2=178.49           H12-O4-C3-H10= 58.25          
H12-O4-C3-H11=298.70          
 
             =======================================
             |                                     |
             |        S C C  calculation           |
             |                                     |
             =======================================
 #proc     :            1
 Ncao      :           24
 Nao       :           24
 Nel       :           26
 T(el)     :   300.0
 intcut    :    25.0
 scfconv   :  0.100E-05
   qconv   :  0.100E-03
 intneglect:  0.100E-07
 broydamp  :      0.400
 Nshell    :           16
 iter      E             dE          RMSdq      gap      omega  full diag
   1    -14.7239644 -0.147240E+02  0.504E-05   12.22       0.0  T
   2    -14.7239644 -0.695444E-11  0.215E-05   12.22    1343.2  T
   3    -14.7239644 -0.603961E-12  0.123E-05   12.22    2346.0  T
speedup  2.31
cpu  time for SCC    0.00 s
wall time for SCC    0.00 s

          eigenvalues
 #    :           1          2          3          4          5          6          7          8
 occ. :        2.000      2.000      2.000      2.000      2.000      2.000      2.000      2.000
 eps  :       -18.633    -17.125    -16.357    -15.573    -15.091    -14.490    -13.988    -13.278
 #    :           9         10         11         12         13         14         15         16
 occ. :        2.000      2.000      2.000      2.000      2.000      0.000      0.000      0.000
 eps  :       -12.847    -12.499    -11.885    -11.861    -11.077      1.140      3.183      3.538
 #    :          17         18         19         20         21         22         23         24
 occ. :        0.000      0.000      0.000      0.000      0.000      0.000      0.000      0.000
 eps  :         3.627      4.079      4.824      5.093      5.849      6.814      7.090      8.087
 

   #   Z            q   n(s)   n(p)   n(d)      C6AA      α(0)    relVol
   1   6 C     -0.107  1.037  3.070  0.000    22.753     6.823     0.552
   2   6 C     -0.060  1.047  3.013  0.000    21.756     6.655     0.539
   3   6 C      0.088  1.036  2.876  0.000    19.456     6.344     0.513
   4   8 O     -0.444  1.709  4.735  0.000    22.235     6.380     1.228
   5   1 H      0.042  0.958  0.000  0.000     2.418     2.431     0.481
   6   1 H      0.036  0.964  0.000  0.000     2.502     2.473     0.489
   7   1 H      0.036  0.964  0.000  0.000     2.501     2.473     0.489
   8   1 H      0.048  0.952  0.000  0.000     2.333     2.388     0.473
   9   1 H      0.048  0.952  0.000  0.000     2.330     2.387     0.472
  10   1 H      0.014  0.986  0.000  0.000     2.823     2.627     0.520
  11   1 H      0.014  0.986  0.000  0.000     2.818     2.625     0.519
  12   1 H      0.284  0.716  0.000  0.000     0.710     1.323     0.262

 Mol. C6AA /au*bohr^6 :        927.942443
 Mol. C8AA /au*bohr^6 :      18764.975655
 Mol. a(0) /au        :         44.929195

 
 Wiberg/Mayer (AO) data. WBOs > 0.1 written file <wbo>
 largest (>0.05) Wiberg bond orders for each atom
           total WBO             WBO to atom ...
     1  C   3.997    C    2 1.020    H    7 0.988    H    6 0.988    H    5 0.987
     2  C   3.995    C    1 1.020    C    3 1.005    H    8 0.977    H    9 0.977
     3  C   3.956    C    2 1.005    O    4 0.993    H   10 0.972    H   11 0.972
     4  O   1.950    C    3 0.993    H   12 0.906
     5  H   0.998    C    1 0.987
     6  H   0.999    C    1 0.988
     7  H   0.999    C    1 0.988
     8  H   0.998    C    2 0.977
     9  H   0.998    C    2 0.977
    10  H   1.000    C    3 0.972
    11  H   1.000    C    3 0.972
    12  H   0.919    O    4 0.906
 
molecular dipole:
                 x           y           z       tot (Debye)
 q only:       -0.328      -0.302      -0.004
   full:       -0.385      -0.560      -0.034       1.729
molecular quadrupole (traceless):
                xx          xy          yy          xz          yz          zz
 q only:       -5.019      -5.706       3.557      -0.223       0.776       1.461
  q+dip:       -7.795      -8.830       4.544      -0.205       0.846       3.252
   full:       -6.967      -9.047       4.499      -0.403       0.985       2.468
 SCC converged in            3  cycles
 
SCC energy    :     -14.7239644
rep           :       0.1675785
ES            :       0.0262020
AES           :       0.0033838
AXC           :       0.0039546
disp          :      -0.0047913
XB            :       0.0000000
fix           :       0.0000000
total E       :     -14.5563843
atomizationE  :       2.7740956     1740.77
(atE without considerung molecular charge,
 total energy contains solvation terms)
H-L gap (eV)  :         12.2164
 !!!!!!!!!!!!!!!!!!!!!!!!!!!!!!!!!!!
 ! Note: the input coordinates are !
 ! NOT overwritten. The optimized  !
 ! ones are on file <xtbopt.coord> !
 ! (or on <xtbopt.xyz> if it was a !
 ! xyz file)                       !
 !!!!!!!!!!!!!!!!!!!!!!!!!!!!!!!!!!!
 
speedup  0.26
cpu  time for all    0.06 s
wall time for all    0.23 s
