 Entering Gaussian System, Link 0=/opt/gaussian/g16/sse4/g16/g16
 Initial command:
 /opt/gaussian/g16/sse4/g16/l1.exe "/scratch/866507/Gau-24674.inp" -scrdir="/scratch/866507/"
 Entering Link 1 = /opt/gaussian/g16/sse4/g16/l1.exe PID=     24676.
  
 Copyright (c) 1988,1990,1992,1993,1995,1998,2003,2009,2016,
            Gaussian, Inc.  All Rights Reserved.
  
 This is part of the Gaussian(R) 16 program.  It is based on
 the Gaussian(R) 09 system (copyright 2009, Gaussian, Inc.),
 the Gaussian(R) 03 system (copyright 2003, Gaussian, Inc.),
 the Gaussian(R) 98 system (copyright 1998, Gaussian, Inc.),
 the Gaussian(R) 94 system (copyright 1995, Gaussian, Inc.),
 the Gaussian 92(TM) system (copyright 1992, Gaussian, Inc.),
 the Gaussian 90(TM) system (copyright 1990, Gaussian, Inc.),
 the Gaussian 88(TM) system (copyright 1988, Gaussian, Inc.),
 the Gaussian 86(TM) system (copyright 1986, Carnegie Mellon
 University), and the Gaussian 82(TM) system (copyright 1983,
 Carnegie Mellon University). Gaussian is a federally registered
 trademark of Gaussian, Inc.
  
 This software contains proprietary and confidential information,
 including trade secrets, belonging to Gaussian, Inc.
  
 This software is provided under written license and may be
 used, copied, transmitted, or stored only in accord with that
 written license.
  
 The following legend is applicable only to US Government
 contracts under FAR:
  
                    RESTRICTED RIGHTS LEGEND
  
 Use, reproduction and disclosure by the US Government is
 subject to restrictions as set forth in subparagraphs (a)
 and (c) of the Commercial Computer Software - Restricted
 Rights clause in FAR 52.227-19.
  
 Gaussian, Inc.
 340 Quinnipiac St., Bldg. 40, Wallingford CT 06492
  
  
 ---------------------------------------------------------------
 Warning -- This program may not be used in any manner that
 competes with the business of Gaussian, Inc. or will provide
 assistance to any competitor of Gaussian, Inc.  The licensee
 of this program is prohibited from giving any competitor of
 Gaussian, Inc. access to this program.  By using this program,
 the user acknowledges that Gaussian, Inc. is engaged in the
 business of creating and licensing software in the field of
 computational chemistry and represents and warrants to the
 licensee that it is not a competitor of Gaussian, Inc. and that
 it will not use this program in any manner prohibited above.
 ---------------------------------------------------------------
  

 Cite this work as:
 Gaussian 16, Revision A.03,
 M. J. Frisch, G. W. Trucks, H. B. Schlegel, G. E. Scuseria, 
 M. A. Robb, J. R. Cheeseman, G. Scalmani, V. Barone, 
 G. A. Petersson, H. Nakatsuji, X. Li, M. Caricato, A. V. Marenich, 
 J. Bloino, B. G. Janesko, R. Gomperts, B. Mennucci, H. P. Hratchian, 
 J. V. Ortiz, A. F. Izmaylov, J. L. Sonnenberg, D. Williams-Young, 
 F. Ding, F. Lipparini, F. Egidi, J. Goings, B. Peng, A. Petrone, 
 T. Henderson, D. Ranasinghe, V. G. Zakrzewski, J. Gao, N. Rega, 
 G. Zheng, W. Liang, M. Hada, M. Ehara, K. Toyota, R. Fukuda, 
 J. Hasegawa, M. Ishida, T. Nakajima, Y. Honda, O. Kitao, H. Nakai, 
 T. Vreven, K. Throssell, J. A. Montgomery, Jr., J. E. Peralta, 
 F. Ogliaro, M. J. Bearpark, J. J. Heyd, E. N. Brothers, K. N. Kudin, 
 V. N. Staroverov, T. A. Keith, R. Kobayashi, J. Normand, 
 K. Raghavachari, A. P. Rendell, J. C. Burant, S. S. Iyengar, 
 J. Tomasi, M. Cossi, J. M. Millam, M. Klene, C. Adamo, R. Cammi, 
 J. W. Ochterski, R. L. Martin, K. Morokuma, O. Farkas, 
 J. B. Foresman, and D. J. Fox, Gaussian, Inc., Wallingford CT, 2016.
 
 ******************************************
 Gaussian 16:  ES64L-G16RevA.03 25-Dec-2016
                 2-Nov-2018 
 ******************************************
 --------------
 # pm3 opt freq
 --------------
 1/18=20,19=15,26=1,38=1/1,3;
 2/9=110,12=2,17=6,18=5,40=1/2;
 3/5=2,25=1,41=800000,71=1/1,2,3;
 4/35=1/1;
 5/5=2,35=1,38=5/2;
 6/7=2,8=2,9=2,10=2,28=1/1;
 7//1,2,3,16;
 1/18=20,19=15,26=1/3(2);
 2/9=110/2;
 99//99;
 2/9=110/2;
 3/5=2,25=1,41=800000,71=1,135=20/1,2,3;
 4/5=5,16=3,35=1/1;
 5/5=2,35=1,38=5/2;
 7//1,2,3,16;
 1/18=20,19=15,26=1/3(-5);
 2/9=110/2;
 6/7=2,8=2,9=2,10=2,19=2,28=1/1;
 99/9=1/99;
 ------------
 propanol.xyz
 ------------
 Symbolic Z-matrix:
 Charge =  0 Multiplicity = 1
 C                     1.51778   1.31942   0.2003 
 C                     3.03508   1.31309   0.03796 
 C                     3.55739  -0.09409  -0.24789 
 O                     4.94969  -0.05094  -0.38676 
 H                     1.1707    2.35245   0.41324 
 H                     1.21678   0.66242   1.04409 
 H                     1.02809   0.96445  -0.73153 
 H                     3.501     1.69514   0.97227 
 H                     3.313     1.98843  -0.80039 
 H                     3.28452  -0.76021   0.60206 
 H                     3.10076  -0.47346  -1.18945 
 H                     5.24739  -0.99362  -0.47499 
 

 GradGradGradGradGradGradGradGradGradGradGradGradGradGradGradGradGradGrad
 Berny optimization.
 Initialization pass.
                           ----------------------------
                           !    Initial Parameters    !
                           ! (Angstroms and Degrees)  !
 --------------------------                            --------------------------
 ! Name  Definition              Value          Derivative Info.                !
 --------------------------------------------------------------------------------
 ! R1    R(1,2)                  1.526          estimate D2E/DX2                !
 ! R2    R(1,5)                  1.1104         estimate D2E/DX2                !
 ! R3    R(1,6)                  1.111          estimate D2E/DX2                !
 ! R4    R(1,7)                  1.1109         estimate D2E/DX2                !
 ! R5    R(2,3)                  1.528          estimate D2E/DX2                !
 ! R6    R(2,8)                  1.1117         estimate D2E/DX2                !
 ! R7    R(2,9)                  1.1118         estimate D2E/DX2                !
 ! R8    R(3,4)                  1.3999         estimate D2E/DX2                !
 ! R9    R(3,10)                 1.1138         estimate D2E/DX2                !
 ! R10   R(3,11)                 1.1131         estimate D2E/DX2                !
 ! R11   R(4,12)                 0.9925         estimate D2E/DX2                !
 ! A1    A(2,1,5)              109.5762         estimate D2E/DX2                !
 ! A2    A(2,1,6)              110.3494         estimate D2E/DX2                !
 ! A3    A(2,1,7)              110.3489         estimate D2E/DX2                !
 ! A4    A(5,1,6)              108.6532         estimate D2E/DX2                !
 ! A5    A(5,1,7)              108.6838         estimate D2E/DX2                !
 ! A6    A(6,1,7)              109.1892         estimate D2E/DX2                !
 ! A7    A(1,2,3)              111.3223         estimate D2E/DX2                !
 ! A8    A(1,2,8)              109.0186         estimate D2E/DX2                !
 ! A9    A(1,2,9)              109.041          estimate D2E/DX2                !
 ! A10   A(3,2,8)              109.2958         estimate D2E/DX2                !
 ! A11   A(3,2,9)              109.4443         estimate D2E/DX2                !
 ! A12   A(8,2,9)              108.6744         estimate D2E/DX2                !
 ! A13   A(2,3,4)              109.2782         estimate D2E/DX2                !
 ! A14   A(2,3,10)             108.9215         estimate D2E/DX2                !
 ! A15   A(2,3,11)             109.3842         estimate D2E/DX2                !
 ! A16   A(4,3,10)             109.7426         estimate D2E/DX2                !
 ! A17   A(4,3,11)             109.5487         estimate D2E/DX2                !
 ! A18   A(10,3,11)            109.948          estimate D2E/DX2                !
 ! A19   A(3,4,12)             106.133          estimate D2E/DX2                !
 ! D1    D(5,1,2,3)            179.626          estimate D2E/DX2                !
 ! D2    D(5,1,2,8)             58.9786         estimate D2E/DX2                !
 ! D3    D(5,1,2,9)            -59.5269         estimate D2E/DX2                !
 ! D4    D(6,1,2,3)             60.0252         estimate D2E/DX2                !
 ! D5    D(6,1,2,8)            -60.6221         estimate D2E/DX2                !
 ! D6    D(6,1,2,9)           -179.1277         estimate D2E/DX2                !
 ! D7    D(7,1,2,3)            -60.7358         estimate D2E/DX2                !
 ! D8    D(7,1,2,8)            178.6168         estimate D2E/DX2                !
 ! D9    D(7,1,2,9)             60.1112         estimate D2E/DX2                !
 ! D10   D(1,2,3,4)           -179.9114         estimate D2E/DX2                !
 ! D11   D(1,2,3,10)           -60.0301         estimate D2E/DX2                !
 ! D12   D(1,2,3,11)            60.1646         estimate D2E/DX2                !
 ! D13   D(8,2,3,4)            -59.4271         estimate D2E/DX2                !
 ! D14   D(8,2,3,10)            60.4542         estimate D2E/DX2                !
 ! D15   D(8,2,3,11)          -179.3511         estimate D2E/DX2                !
 ! D16   D(9,2,3,4)             59.4784         estimate D2E/DX2                !
 ! D17   D(9,2,3,10)           179.3596         estimate D2E/DX2                !
 ! D18   D(9,2,3,11)           -60.4457         estimate D2E/DX2                !
 ! D19   D(2,3,4,12)           174.2219         estimate D2E/DX2                !
 ! D20   D(10,3,4,12)           54.8472         estimate D2E/DX2                !
 ! D21   D(11,3,4,12)          -65.9553         estimate D2E/DX2                !
 --------------------------------------------------------------------------------
 Trust Radius=3.00D-01 FncErr=1.00D-07 GrdErr=1.00D-07 EigMax=2.50D+02 EigMin=1.00D-04
 Number of steps in this run=     61 maximum allowed number of steps=    100.
 GradGradGradGradGradGradGradGradGradGradGradGradGradGradGradGradGradGrad

                          Input orientation:                          
 ---------------------------------------------------------------------
 Center     Atomic      Atomic             Coordinates (Angstroms)
 Number     Number       Type             X           Y           Z
 ---------------------------------------------------------------------
      1          6           0        1.517780    1.319420    0.200300
      2          6           0        3.035080    1.313090    0.037960
      3          6           0        3.557390   -0.094090   -0.247890
      4          8           0        4.949690   -0.050940   -0.386760
      5          1           0        1.170700    2.352450    0.413240
      6          1           0        1.216780    0.662420    1.044090
      7          1           0        1.028090    0.964450   -0.731530
      8          1           0        3.501000    1.695140    0.972270
      9          1           0        3.313000    1.988430   -0.800390
     10          1           0        3.284520   -0.760210    0.602060
     11          1           0        3.100760   -0.473460   -1.189450
     12          1           0        5.247390   -0.993620   -0.474990
 ---------------------------------------------------------------------
                    Distance matrix (angstroms):
                    1          2          3          4          5
     1  C    0.000000
     2  C    1.525973   0.000000
     3  C    2.521685   1.527964   0.000000
     4  O    3.741729   2.388869   1.399874   0.000000
     5  H    1.110387   2.167260   3.481227   4.549401   0.000000
     6  H    1.110960   2.177587   2.778484   4.060890   1.804521
     7  H    1.110904   2.177538   2.784201   4.065566   1.804821
     8  H    2.161080   1.111746   2.166406   2.644704   2.484928
     9  H    2.161428   1.111825   2.168380   2.647428   2.488947
    10  H    2.758195   2.163100   1.113817   2.062431   3.767299
    11  H    2.766161   2.168550   1.113089   2.059460   3.778824
    12  H    4.440288   3.237027   1.927908   0.992500   5.348321
                    6          7          8          9         10
     6  H    0.000000
     7  H    1.810981   0.000000
     8  H    2.507854   3.090651   0.000000
     9  H    3.091043   2.504813   1.806568   0.000000
    10  H    2.548493   3.137577   2.492521   3.085887   0.000000
    11  H    3.135013   2.563832   3.088050   2.501463   1.823596
    12  H    4.614747   4.658577   3.517651   3.569366   2.251083
                   11         12
    11  H    0.000000
    12  H    2.321431   0.000000
 Stoichiometry    C3H8O
 Framework group  C1[X(C3H8O)]
 Deg. of freedom    30
 Full point group                 C1      NOp   1
 Largest Abelian subgroup         C1      NOp   1
 Largest concise Abelian subgroup C1      NOp   1
                         Standard orientation:                         
 ---------------------------------------------------------------------
 Center     Atomic      Atomic             Coordinates (Angstroms)
 Number     Number       Type             X           Y           Z
 ---------------------------------------------------------------------
      1          6           0        1.883094   -0.168369   -0.002605
      2          6           0        0.531575    0.540145   -0.002434
      3          6           0       -0.621350   -0.462502    0.009206
      4          8           0       -1.837221    0.231255    0.006912
      5          1           0        2.698307    0.585388   -0.017985
      6          1           0        1.980139   -0.815101   -0.900687
      7          1           0        1.992358   -0.792167    0.910108
      8          1           0        0.455953    1.176402   -0.910970
      9          1           0        0.464015    1.192284    0.895510
     10          1           0       -0.552019   -1.103185   -0.899259
     11          1           0       -0.553774   -1.092577    0.924305
     12          1           0       -2.547123   -0.456721   -0.081323
 ---------------------------------------------------------------------
 Rotational constants (GHZ):          26.1792215           3.8230524           3.5707217
 Standard basis: VSTO-6G (5D, 7F)
 There are    24 symmetry adapted cartesian basis functions of A   symmetry.
 There are    24 symmetry adapted basis functions of A   symmetry.
    24 basis functions,   144 primitive gaussians,    24 cartesian basis functions
    13 alpha electrons       13 beta electrons
       nuclear repulsion energy        94.1265023225 Hartrees.
 Integral buffers will be    131072 words long.
 Regular integral format.
 Two-electron integral symmetry is turned off.
 Do NDO integrals.
 One-electron integrals computed using PRISM.
 NBasis=    24 RedAO= F EigKep=  0.00D+00  NBF=    24
 NBsUse=    24 1.00D-04 EigRej=  0.00D+00 NBFU=    24
 Simple Huckel Guess.
 Keep J ints in memory in canonical form, NReq=860523.
 Overlap will be assumed to be unity.
 Requested convergence on RMS density matrix=1.00D-08 within 128 cycles.
 Requested convergence on MAX density matrix=1.00D-06.
 Requested convergence on             energy=1.00D-06.
 No special actions if energy rises.
 SCF Done:  E(RPM3) = -0.958217193267E-01 A.U. after   13 cycles
            NFock= 12  Conv=0.41D-08     -V/T= 0.9978

 **********************************************************************

            Population analysis using the SCF density.

 **********************************************************************

 Orbital symmetries:
       Occupied  (A) (A) (A) (A) (A) (A) (A) (A) (A) (A) (A) (A)
                 (A)
       Virtual   (A) (A) (A) (A) (A) (A) (A) (A) (A) (A) (A)
 The electronic state is 1-A.
 Alpha  occ. eigenvalues --   -1.42816  -1.24176  -0.93108  -0.77399  -0.65010
 Alpha  occ. eigenvalues --   -0.61557  -0.57654  -0.52350  -0.49212  -0.49166
 Alpha  occ. eigenvalues --   -0.44302  -0.43947  -0.39909
 Alpha virt. eigenvalues --    0.11554   0.13425   0.13816   0.14382   0.15144
 Alpha virt. eigenvalues --    0.15346   0.15872   0.16793   0.17894   0.18225
 Alpha virt. eigenvalues --    0.20529
          Condensed to atoms (all electrons):
               1          2          3          4          5          6
     1  C    4.108727   0.000000   0.000000   0.000000   0.000000   0.000000
     2  C    0.000000   4.121098   0.000000   0.000000   0.000000   0.000000
     3  C    0.000000   0.000000   3.928806   0.000000   0.000000   0.000000
     4  O    0.000000   0.000000   0.000000   6.309750   0.000000   0.000000
     5  H    0.000000   0.000000   0.000000   0.000000   0.958314   0.000000
     6  H    0.000000   0.000000   0.000000   0.000000   0.000000   0.961150
     7  H    0.000000   0.000000   0.000000   0.000000   0.000000   0.000000
     8  H    0.000000   0.000000   0.000000   0.000000   0.000000   0.000000
     9  H    0.000000   0.000000   0.000000   0.000000   0.000000   0.000000
    10  H    0.000000   0.000000   0.000000   0.000000   0.000000   0.000000
    11  H    0.000000   0.000000   0.000000   0.000000   0.000000   0.000000
    12  H    0.000000   0.000000   0.000000   0.000000   0.000000   0.000000
               7          8          9         10         11         12
     1  C    0.000000   0.000000   0.000000   0.000000   0.000000   0.000000
     2  C    0.000000   0.000000   0.000000   0.000000   0.000000   0.000000
     3  C    0.000000   0.000000   0.000000   0.000000   0.000000   0.000000
     4  O    0.000000   0.000000   0.000000   0.000000   0.000000   0.000000
     5  H    0.000000   0.000000   0.000000   0.000000   0.000000   0.000000
     6  H    0.000000   0.000000   0.000000   0.000000   0.000000   0.000000
     7  H    0.960761   0.000000   0.000000   0.000000   0.000000   0.000000
     8  H    0.000000   0.939935   0.000000   0.000000   0.000000   0.000000
     9  H    0.000000   0.000000   0.939174   0.000000   0.000000   0.000000
    10  H    0.000000   0.000000   0.000000   0.980111   0.000000   0.000000
    11  H    0.000000   0.000000   0.000000   0.000000   0.977564   0.000000
    12  H    0.000000   0.000000   0.000000   0.000000   0.000000   0.814610
 Mulliken charges:
               1
     1  C   -0.108727
     2  C   -0.121098
     3  C    0.071194
     4  O   -0.309750
     5  H    0.041686
     6  H    0.038850
     7  H    0.039239
     8  H    0.060065
     9  H    0.060826
    10  H    0.019889
    11  H    0.022436
    12  H    0.185390
 Sum of Mulliken charges =  -0.00000
 Mulliken charges with hydrogens summed into heavy atoms:
               1
     1  C    0.011048
     2  C   -0.000206
     3  C    0.113519
     4  O   -0.124360
 Charge=             -0.0000 electrons
 Dipole moment (field-independent basis, Debye):
    X=              0.2241    Y=             -1.4261    Z=             -0.1234  Tot=              1.4489
 N-N= 9.412650232245D+01 E-N=-1.269279380421D+02  KE=-4.350456981360D+01
 Calling FoFJK, ICntrl=      2127 FMM=F ISym2X=0 I1Cent= 0 IOpClX= 0 NMat=1 NMatS=1 NMatT=0.
 ***** Axes restored to original set *****
 -------------------------------------------------------------------
 Center     Atomic                   Forces (Hartrees/Bohr)
 Number     Number              X              Y              Z
 -------------------------------------------------------------------
      1        6           0.006552395   -0.000737904   -0.000837193
      2        6          -0.004650290    0.001121548    0.000447256
      3        6          -0.009990591   -0.002493142    0.001853239
      4        8           0.018119417   -0.035568402   -0.003939407
      5        1           0.000178449   -0.010122207   -0.001781741
      6        1          -0.000544769    0.006162012   -0.008394817
      7        1           0.001407596    0.003046834    0.009870327
      8        1           0.000326955    0.001962961   -0.005087257
      9        1           0.001407799    0.000058790    0.005261782
     10        1          -0.000566091   -0.000509087   -0.005458240
     11        1           0.000610733   -0.001925605    0.004537064
     12        1          -0.012851601    0.039004202    0.003528986
 -------------------------------------------------------------------
 Cartesian Forces:  Max     0.039004202 RMS     0.010437987

 GradGradGradGradGradGradGradGradGradGradGradGradGradGradGradGradGradGrad
 Berny optimization.
 FormGI is forming the generalized inverse of G from B-inverse, IUseBI=4.
 Internal  Forces:  Max     0.041214894 RMS     0.006763103
 Search for a local minimum.
 Step number   1 out of a maximum of   61
 All quantities printed in internal units (Hartrees-Bohrs-Radians)
 Mixed Optimization -- RFO/linear search
 Second derivative matrix not updated -- first step.
 ITU=  0
     Eigenvalues ---    0.00396   0.00422   0.01693   0.03769   0.04954
     Eigenvalues ---    0.05331   0.05670   0.05783   0.05980   0.08066
     Eigenvalues ---    0.11304   0.11997   0.13734   0.16000   0.16000
     Eigenvalues ---    0.16000   0.16000   0.21962   0.22095   0.29612
     Eigenvalues ---    0.29798   0.32199   0.32275   0.32408   0.32416
     Eigenvalues ---    0.32499   0.32505   0.32559   0.45641   0.49032
 RFO step:  Lambda=-5.99238712D-03 EMin= 3.96039469D-03
 Linear search not attempted -- first point.
 Iteration  1 RMS(Cart)=  0.02410234 RMS(Int)=  0.00026520
 Iteration  2 RMS(Cart)=  0.00032930 RMS(Int)=  0.00008061
 Iteration  3 RMS(Cart)=  0.00000007 RMS(Int)=  0.00008061
 Variable       Old X    -DE/DX   Delta X   Delta X   Delta X     New X
                                 (Linear)    (Quad)   (Total)
    R1        2.88367  -0.00768   0.00000  -0.02526  -0.02526   2.85841
    R2        2.09833  -0.00981   0.00000  -0.02960  -0.02960   2.06873
    R3        2.09941  -0.00987   0.00000  -0.02983  -0.02983   2.06958
    R4        2.09930  -0.00987   0.00000  -0.02983  -0.02983   2.06948
    R5        2.88743  -0.00032   0.00000  -0.00107  -0.00107   2.88637
    R6        2.10090  -0.00346   0.00000  -0.01049  -0.01049   2.09040
    R7        2.10104  -0.00358   0.00000  -0.01085  -0.01085   2.09020
    R8        2.64538   0.00539   0.00000   0.01165   0.01165   2.65703
    R9        2.10481  -0.00372   0.00000  -0.01135  -0.01135   2.09346
   R10        2.10343  -0.00343   0.00000  -0.01044  -0.01044   2.09299
   R11        1.87555  -0.04121   0.00000  -0.08304  -0.08304   1.79251
    A1        1.91247   0.00319   0.00000   0.02047   0.02024   1.93270
    A2        1.92596   0.00338   0.00000   0.01978   0.01960   1.94556
    A3        1.92595   0.00335   0.00000   0.01949   0.01930   1.94526
    A4        1.89636  -0.00315   0.00000  -0.01767  -0.01790   1.87846
    A5        1.89689  -0.00317   0.00000  -0.01796  -0.01818   1.87871
    A6        1.90571  -0.00382   0.00000  -0.02540  -0.02553   1.88018
    A7        1.94294  -0.00430   0.00000  -0.01213  -0.01210   1.93084
    A8        1.90273   0.00188   0.00000   0.01324   0.01326   1.91600
    A9        1.90312   0.00189   0.00000   0.01217   0.01219   1.91532
   A10        1.90757   0.00182   0.00000   0.01225   0.01228   1.91985
   A11        1.91016   0.00166   0.00000   0.00980   0.00983   1.91999
   A12        1.89673  -0.00296   0.00000  -0.03614  -0.03612   1.86061
   A13        1.90726  -0.00659   0.00000  -0.02516  -0.02503   1.88224
   A14        1.90104   0.00361   0.00000   0.02267   0.02270   1.92374
   A15        1.90911   0.00306   0.00000   0.01606   0.01606   1.92517
   A16        1.91537   0.00191   0.00000   0.01169   0.01184   1.92721
   A17        1.91199   0.00167   0.00000   0.00549   0.00560   1.91758
   A18        1.91896  -0.00367   0.00000  -0.03067  -0.03077   1.88819
   A19        1.85237  -0.00093   0.00000  -0.00562  -0.00562   1.84675
    D1        3.13506   0.00009   0.00000   0.00238   0.00239   3.13745
    D2        1.02937  -0.00070   0.00000  -0.01393  -0.01392   1.01545
    D3       -1.03894   0.00068   0.00000   0.01494   0.01494  -1.02400
    D4        1.04764  -0.00012   0.00000  -0.00095  -0.00097   1.04666
    D5       -1.05806  -0.00091   0.00000  -0.01726  -0.01729  -1.07534
    D6       -3.12637   0.00047   0.00000   0.01161   0.01158  -3.11479
    D7       -1.06004   0.00026   0.00000   0.00519   0.00522  -1.05483
    D8        3.11745  -0.00053   0.00000  -0.01112  -0.01110   3.10635
    D9        1.04914   0.00085   0.00000   0.01775   0.01777   1.06691
   D10       -3.14005  -0.00026   0.00000  -0.00562  -0.00561   3.13753
   D11       -1.04772   0.00029   0.00000   0.00719   0.00713  -1.04060
   D12        1.05007  -0.00015   0.00000  -0.00678  -0.00672   1.04335
   D13       -1.03720   0.00055   0.00000   0.01126   0.01127  -1.02592
   D14        1.05512   0.00110   0.00000   0.02408   0.02401   1.07914
   D15       -3.13027   0.00066   0.00000   0.01010   0.01016  -3.12011
   D16        1.03809  -0.00097   0.00000  -0.01955  -0.01954   1.01855
   D17        3.13042  -0.00042   0.00000  -0.00673  -0.00680   3.12361
   D18       -1.05498  -0.00086   0.00000  -0.02071  -0.02065  -1.07563
   D19        3.04075   0.00038   0.00000   0.00851   0.00849   3.04924
   D20        0.95726  -0.00117   0.00000  -0.01092  -0.01092   0.94635
   D21       -1.15114   0.00111   0.00000   0.01614   0.01615  -1.13499
         Item               Value     Threshold  Converged?
 Maximum Force            0.041215     0.000450     NO 
 RMS     Force            0.006763     0.000300     NO 
 Maximum Displacement     0.098141     0.001800     NO 
 RMS     Displacement     0.024155     0.001200     NO 
 Predicted change in Energy=-3.060241D-03
 GradGradGradGradGradGradGradGradGradGradGradGradGradGradGradGradGradGrad

                          Input orientation:                          
 ---------------------------------------------------------------------
 Center     Atomic      Atomic             Coordinates (Angstroms)
 Number     Number       Type             X           Y           Z
 ---------------------------------------------------------------------
      1          6           0        1.535719    1.317755    0.197450
      2          6           0        3.040050    1.309772    0.039657
      3          6           0        3.543915   -0.104020   -0.243642
      4          8           0        4.941540   -0.043137   -0.384629
      5          1           0        1.173106    2.329665    0.404741
      6          1           0        1.215961    0.674956    1.024477
      7          1           0        1.035790    0.965652   -0.711057
      8          1           0        3.514829    1.703719    0.957838
      9          1           0        3.332929    1.987957   -0.783576
     10          1           0        3.268472   -0.782466    0.587676
     11          1           0        3.088362   -0.495088   -1.174360
     12          1           0        5.231506   -0.941686   -0.475665
 ---------------------------------------------------------------------
                    Distance matrix (angstroms):
                    1          2          3          4          5
     1  C    0.000000
     2  C    1.512605   0.000000
     3  C    2.499772   1.527399   0.000000
     4  O    3.713552   2.371930   1.406037   0.000000
     5  H    1.094724   2.158459   3.458896   4.522653   0.000000
     6  H    1.095175   2.167985   2.763023   4.047367   1.767476
     7  H    1.095121   2.167729   2.766472   4.047109   1.767596
     8  H    2.155002   1.106194   2.170788   2.624735   2.486240
     9  H    2.154425   1.106085   2.170809   2.621475   2.488714
    10  H    2.750571   2.174848   1.107812   2.071507   3.756246
    11  H    2.752991   2.175705   1.107565   2.064511   3.760451
    12  H    4.383720   3.183881   1.898284   0.948555   5.286536
                    6          7          8          9         10
     6  H    0.000000
     7  H    1.768910   0.000000
     8  H    2.519441   3.078244   0.000000
     9  H    3.078080   2.515396   1.773809   0.000000
    10  H    2.554931   3.118893   2.525634   3.091881   0.000000
    11  H    3.116050   2.561535   3.092393   2.525478   1.794380
    12  H    4.581327   4.614908   3.464113   3.504599   2.238202
                   11         12
    11  H    0.000000
    12  H    2.297976   0.000000
 Stoichiometry    C3H8O
 Framework group  C1[X(C3H8O)]
 Deg. of freedom    30
 Full point group                 C1      NOp   1
 Largest Abelian subgroup         C1      NOp   1
 Largest concise Abelian subgroup C1      NOp   1
                         Standard orientation:                         
 ---------------------------------------------------------------------
 Center     Atomic      Atomic             Coordinates (Angstroms)
 Number     Number       Type             X           Y           Z
 ---------------------------------------------------------------------
      1          6           0        1.866237   -0.159255   -0.000978
      2          6           0        0.525390    0.540812   -0.003713
      3          6           0       -0.613218   -0.477242    0.005428
      4          8           0       -1.826495    0.233317    0.007845
      5          1           0        2.683652    0.568851   -0.011760
      6          1           0        1.984067   -0.803191   -0.878971
      7          1           0        1.990058   -0.784096    0.889826
      8          1           0        0.444403    1.190992   -0.894989
      9          1           0        0.447952    1.203113    0.878775
     10          1           0       -0.549770   -1.130728   -0.886860
     11          1           0       -0.549721   -1.116771    0.907465
     12          1           0       -2.509131   -0.420596   -0.070670
 ---------------------------------------------------------------------
 Rotational constants (GHZ):          26.0965093           3.8841305           3.6125030
 Standard basis: VSTO-6G (5D, 7F)
 There are    24 symmetry adapted cartesian basis functions of A   symmetry.
 There are    24 symmetry adapted basis functions of A   symmetry.
    24 basis functions,   144 primitive gaussians,    24 cartesian basis functions
    13 alpha electrons       13 beta electrons
       nuclear repulsion energy        94.4419419604 Hartrees.
 Integral buffers will be    131072 words long.
 Regular integral format.
 Two-electron integral symmetry is turned off.
 Do NDO integrals.
 One-electron integrals computed using PRISM.
 NBasis=    24 RedAO= F EigKep=  0.00D+00  NBF=    24
 NBsUse=    24 1.00D-04 EigRej=  0.00D+00 NBFU=    24
 Initial guess from the checkpoint file:  "/scratch/866507/Gau-24676.chk"
 B after Tr=     0.000000   -0.000000   -0.000000
         Rot=    1.000000   -0.000486    0.000114   -0.000855 Ang=  -0.11 deg.
 Keep J ints in memory in canonical form, NReq=860523.
 Overlap will be assumed to be unity.
 Requested convergence on RMS density matrix=1.00D-08 within 128 cycles.
 Requested convergence on MAX density matrix=1.00D-06.
 Requested convergence on             energy=1.00D-06.
 No special actions if energy rises.
 SCF Done:  E(RPM3) = -0.990032663991E-01 A.U. after   11 cycles
            NFock= 10  Conv=0.70D-08     -V/T= 0.9977
 Calling FoFJK, ICntrl=      2127 FMM=F ISym2X=0 I1Cent= 0 IOpClX= 0 NMat=1 NMatS=1 NMatT=0.
 ***** Axes restored to original set *****
 -------------------------------------------------------------------
 Center     Atomic                   Forces (Hartrees/Bohr)
 Number     Number              X              Y              Z
 -------------------------------------------------------------------
      1        6           0.003137160    0.000423951   -0.000227374
      2        6          -0.001816447   -0.001435312   -0.000057548
      3        6          -0.002374310    0.001964145    0.000638068
      4        8           0.002287410   -0.002025665   -0.000183999
      5        1          -0.001250137    0.001442770    0.000353034
      6        1          -0.001153305   -0.001110818    0.001239926
      7        1          -0.001434192   -0.000707948   -0.001284044
      8        1           0.001129156    0.001178165   -0.000163066
      9        1           0.001236714    0.001148025    0.000252427
     10        1          -0.000326983   -0.000945274   -0.000840826
     11        1          -0.000352094   -0.001257978    0.000417162
     12        1           0.000917027    0.001325940   -0.000143760
 -------------------------------------------------------------------
 Cartesian Forces:  Max     0.003137160 RMS     0.001275776

 GradGradGradGradGradGradGradGradGradGradGradGradGradGradGradGradGradGrad
 Berny optimization.
 Using GEDIIS/GDIIS optimizer.
 FormGI is forming the generalized inverse of G from B-inverse, IUseBI=4.
 Internal  Forces:  Max     0.003187832 RMS     0.000877082
 Search for a local minimum.
 Step number   2 out of a maximum of   61
 All quantities printed in internal units (Hartrees-Bohrs-Radians)
 Mixed Optimization -- En-DIIS/RFO-DIIS
 Update second derivatives using D2CorX and points    1    2
 DE= -3.18D-03 DEPred=-3.06D-03 R= 1.04D+00
 TightC=F SS=  1.41D+00  RLast= 1.46D-01 DXNew= 5.0454D-01 4.3883D-01
 Trust test= 1.04D+00 RLast= 1.46D-01 DXMaxT set to 4.39D-01
 ITU=  1  0
 Use linear search instead of GDIIS.
     Eigenvalues ---    0.00396   0.00422   0.01693   0.03746   0.04780
     Eigenvalues ---    0.05381   0.05474   0.05564   0.05834   0.08032
     Eigenvalues ---    0.11072   0.11973   0.13663   0.15494   0.16000
     Eigenvalues ---    0.16000   0.16198   0.21684   0.21912   0.29583
     Eigenvalues ---    0.29927   0.32183   0.32272   0.32410   0.32422
     Eigenvalues ---    0.32501   0.32541   0.34827   0.44307   0.50398
 RFO step:  Lambda=-2.04233022D-04 EMin= 3.96038902D-03
 Quartic linear search produced a step of  0.02990.
 Iteration  1 RMS(Cart)=  0.00792439 RMS(Int)=  0.00003986
 Iteration  2 RMS(Cart)=  0.00003922 RMS(Int)=  0.00000816
 Iteration  3 RMS(Cart)=  0.00000000 RMS(Int)=  0.00000816
 Variable       Old X    -DE/DX   Delta X   Delta X   Delta X     New X
                                 (Linear)    (Quad)   (Total)
    R1        2.85841   0.00071  -0.00076   0.00246   0.00171   2.86012
    R2        2.06873   0.00181  -0.00088   0.00576   0.00487   2.07360
    R3        2.06958   0.00193  -0.00089   0.00612   0.00523   2.07481
    R4        2.06948   0.00195  -0.00089   0.00619   0.00530   2.07478
    R5        2.88637   0.00094  -0.00003   0.00327   0.00324   2.88960
    R6        2.09040   0.00077  -0.00031   0.00245   0.00214   2.09254
    R7        2.09020   0.00084  -0.00032   0.00269   0.00236   2.09256
    R8        2.65703   0.00319   0.00035   0.00719   0.00754   2.66456
    R9        2.09346   0.00003  -0.00034   0.00010  -0.00024   2.09322
   R10        2.09299   0.00024  -0.00031   0.00077   0.00046   2.09345
   R11        1.79251  -0.00096  -0.00248  -0.00204  -0.00452   1.78799
    A1        1.93270   0.00076   0.00060   0.00547   0.00605   1.93875
    A2        1.94556   0.00054   0.00059   0.00310   0.00367   1.94923
    A3        1.94526   0.00056   0.00058   0.00318   0.00375   1.94900
    A4        1.87846  -0.00062  -0.00054  -0.00329  -0.00384   1.87462
    A5        1.87871  -0.00063  -0.00054  -0.00340  -0.00397   1.87475
    A6        1.88018  -0.00072  -0.00076  -0.00576  -0.00653   1.87365
    A7        1.93084  -0.00025  -0.00036   0.00217   0.00179   1.93263
    A8        1.91600   0.00042   0.00040   0.00505   0.00544   1.92144
    A9        1.91532   0.00045   0.00036   0.00530   0.00566   1.92098
   A10        1.91985   0.00011   0.00037   0.00093   0.00128   1.92113
   A11        1.91999   0.00008   0.00029   0.00069   0.00096   1.92095
   A12        1.86061  -0.00082  -0.00108  -0.01466  -0.01573   1.84488
   A13        1.88224  -0.00051  -0.00075  -0.00031  -0.00106   1.88117
   A14        1.92374   0.00087   0.00068   0.00635   0.00703   1.93077
   A15        1.92517   0.00075   0.00048   0.00545   0.00593   1.93110
   A16        1.92721  -0.00002   0.00035   0.00027   0.00062   1.92782
   A17        1.91758   0.00006   0.00017   0.00095   0.00112   1.91870
   A18        1.88819  -0.00112  -0.00092  -0.01252  -0.01344   1.87474
   A19        1.84675   0.00232  -0.00017   0.01494   0.01477   1.86152
    D1        3.13745   0.00002   0.00007   0.00145   0.00152   3.13897
    D2        1.01545  -0.00024  -0.00042  -0.00448  -0.00490   1.01054
    D3       -1.02400   0.00025   0.00045   0.00724   0.00769  -1.01631
    D4        1.04666  -0.00007  -0.00003  -0.00011  -0.00015   1.04652
    D5       -1.07534  -0.00033  -0.00052  -0.00604  -0.00657  -1.08191
    D6       -3.11479   0.00016   0.00035   0.00568   0.00603  -3.10876
    D7       -1.05483   0.00010   0.00016   0.00292   0.00308  -1.05174
    D8        3.10635  -0.00016  -0.00033  -0.00301  -0.00334   3.10301
    D9        1.06691   0.00033   0.00053   0.00872   0.00926   1.07617
   D10        3.13753   0.00001  -0.00017  -0.00094  -0.00111   3.13642
   D11       -1.04060   0.00018   0.00021   0.00295   0.00316  -1.03743
   D12        1.04335  -0.00019  -0.00020  -0.00510  -0.00530   1.03804
   D13       -1.02592   0.00044   0.00034   0.00743   0.00777  -1.01815
   D14        1.07914   0.00062   0.00072   0.01133   0.01204   1.09118
   D15       -3.12011   0.00025   0.00030   0.00328   0.00358  -3.11653
   D16        1.01855  -0.00044  -0.00058  -0.00947  -0.01006   1.00849
   D17        3.12361  -0.00027  -0.00020  -0.00558  -0.00578   3.11783
   D18       -1.07563  -0.00064  -0.00062  -0.01363  -0.01425  -1.08988
   D19        3.04924   0.00011   0.00025   0.00474   0.00500   3.05423
   D20        0.94635  -0.00062  -0.00033  -0.00298  -0.00330   0.94305
   D21       -1.13499   0.00074   0.00048   0.01172   0.01220  -1.12278
         Item               Value     Threshold  Converged?
 Maximum Force            0.003188     0.000450     NO 
 RMS     Force            0.000877     0.000300     NO 
 Maximum Displacement     0.027841     0.001800     NO 
 RMS     Displacement     0.007917     0.001200     NO 
 Predicted change in Energy=-1.078609D-04
 GradGradGradGradGradGradGradGradGradGradGradGradGradGradGradGradGradGrad

                          Input orientation:                          
 ---------------------------------------------------------------------
 Center     Atomic      Atomic             Coordinates (Angstroms)
 Number     Number       Type             X           Y           Z
 ---------------------------------------------------------------------
      1          6           0        1.533858    1.321142    0.197754
      2          6           0        3.039127    1.309097    0.040508
      3          6           0        3.542452   -0.106734   -0.242803
      4          8           0        4.944002   -0.045254   -0.384411
      5          1           0        1.166637    2.334404    0.403963
      6          1           0        1.207366    0.678552    1.025979
      7          1           0        1.028528    0.966955   -0.710339
      8          1           0        3.520268    1.707651    0.954743
      9          1           0        3.341004    1.990547   -0.778449
     10          1           0        3.266455   -0.791491    0.582972
     11          1           0        3.086244   -0.505120   -1.170379
     12          1           0        5.246239   -0.936668   -0.480630
 ---------------------------------------------------------------------
                    Distance matrix (angstroms):
                    1          2          3          4          5
     1  C    0.000000
     2  C    1.513509   0.000000
     3  C    2.503472   1.529111   0.000000
     4  O    3.719548   2.375578   1.410026   0.000000
     5  H    1.097303   2.165543   3.467270   4.533519   0.000000
     6  H    1.097942   2.173497   2.771120   4.059007   1.769295
     7  H    1.097924   2.173325   2.773304   4.057306   1.769367
     8  H    2.160613   1.107324   2.174075   2.625457   2.497150
     9  H    2.160290   1.107336   2.173956   2.620945   2.498842
    10  H    2.759258   2.181380   1.107687   2.075298   3.769947
    11  H    2.759877   2.181708   1.107806   2.068934   3.771782
    12  H    4.397690   3.191612   1.910037   0.946163   5.303354
                    6          7          8          9         10
     6  H    0.000000
     7  H    1.769169   0.000000
     8  H    2.532515   3.087053   0.000000
     9  H    3.087021   2.529808   1.765253   0.000000
    10  H    2.568488   3.126196   2.539360   3.098186   0.000000
    11  H    3.123339   2.571544   3.098528   2.539068   1.785699
    12  H    4.603400   4.633102   3.468673   3.505310   2.252081
                   11         12
    11  H    0.000000
    12  H    2.308152   0.000000
 Stoichiometry    C3H8O
 Framework group  C1[X(C3H8O)]
 Deg. of freedom    30
 Full point group                 C1      NOp   1
 Largest Abelian subgroup         C1      NOp   1
 Largest concise Abelian subgroup C1      NOp   1
                         Standard orientation:                         
 ---------------------------------------------------------------------
 Center     Atomic      Atomic             Coordinates (Angstroms)
 Number     Number       Type             X           Y           Z
 ---------------------------------------------------------------------
      1          6           0        1.869491   -0.157051   -0.000613
      2          6           0        0.526151    0.540181   -0.003818
      3          6           0       -0.613091   -0.479740    0.004438
      4          8           0       -1.829500    0.233360    0.007929
      5          1           0        2.691484    0.569811   -0.009191
      6          1           0        1.993236   -0.803233   -0.879597
      7          1           0        1.997173   -0.787008    0.889494
      8          1           0        0.441056    1.197828   -0.890625
      9          1           0        0.443333    1.209311    0.874589
     10          1           0       -0.553238   -1.138768   -0.883858
     11          1           0       -0.551841   -1.126445    0.901798
     12          1           0       -2.520504   -0.408716   -0.066083
 ---------------------------------------------------------------------
 Rotational constants (GHZ):          26.0294095           3.8703892           3.5977354
 Standard basis: VSTO-6G (5D, 7F)
 There are    24 symmetry adapted cartesian basis functions of A   symmetry.
 There are    24 symmetry adapted basis functions of A   symmetry.
    24 basis functions,   144 primitive gaussians,    24 cartesian basis functions
    13 alpha electrons       13 beta electrons
       nuclear repulsion energy        94.3469976135 Hartrees.
 Integral buffers will be    131072 words long.
 Regular integral format.
 Two-electron integral symmetry is turned off.
 Do NDO integrals.
 One-electron integrals computed using PRISM.
 NBasis=    24 RedAO= F EigKep=  0.00D+00  NBF=    24
 NBsUse=    24 1.00D-04 EigRej=  0.00D+00 NBFU=    24
 Initial guess from the checkpoint file:  "/scratch/866507/Gau-24676.chk"
 B after Tr=     0.000000    0.000000    0.000000
         Rot=    1.000000   -0.000368    0.000015   -0.000160 Ang=  -0.05 deg.
 Keep J ints in memory in canonical form, NReq=860523.
 Overlap will be assumed to be unity.
 Requested convergence on RMS density matrix=1.00D-08 within 128 cycles.
 Requested convergence on MAX density matrix=1.00D-06.
 Requested convergence on             energy=1.00D-06.
 No special actions if energy rises.
 SCF Done:  E(RPM3) = -0.991077616431E-01 A.U. after   10 cycles
            NFock=  9  Conv=0.91D-08     -V/T= 0.9977
 Calling FoFJK, ICntrl=      2127 FMM=F ISym2X=0 I1Cent= 0 IOpClX= 0 NMat=1 NMatS=1 NMatT=0.
 ***** Axes restored to original set *****
 -------------------------------------------------------------------
 Center     Atomic                   Forces (Hartrees/Bohr)
 Number     Number              X              Y              Z
 -------------------------------------------------------------------
      1        6           0.001546203   -0.000021300   -0.000157134
      2        6          -0.000862355   -0.001410583   -0.000169748
      3        6           0.000230511    0.001115930    0.000112180
      4        8          -0.000805689    0.001589420    0.000399159
      5        1          -0.000100138   -0.000007123   -0.000001580
      6        1          -0.000097746   -0.000080627    0.000073211
      7        1          -0.000122747   -0.000065506   -0.000071130
      8        1           0.000261913    0.000260929    0.000105340
      9        1           0.000265259    0.000304354   -0.000060971
     10        1          -0.000127465   -0.000274482   -0.000007693
     11        1          -0.000160381   -0.000340207   -0.000016010
     12        1          -0.000027366   -0.001070806   -0.000205623
 -------------------------------------------------------------------
 Cartesian Forces:  Max     0.001589420 RMS     0.000568068

 GradGradGradGradGradGradGradGradGradGradGradGradGradGradGradGradGradGrad
 Berny optimization.
 Using GEDIIS/GDIIS optimizer.
 FormGI is forming the generalized inverse of G from B-inverse, IUseBI=4.
 Internal  Forces:  Max     0.001289636 RMS     0.000365382
 Search for a local minimum.
 Step number   3 out of a maximum of   61
 All quantities printed in internal units (Hartrees-Bohrs-Radians)
 Mixed Optimization -- En-DIIS/RFO-DIIS
 Swapping is turned off.
 Update second derivatives using D2CorX and points    1    2    3
 DE= -1.04D-04 DEPred=-1.08D-04 R= 9.69D-01
 TightC=F SS=  1.41D+00  RLast= 4.66D-02 DXNew= 7.3802D-01 1.3975D-01
 Trust test= 9.69D-01 RLast= 4.66D-02 DXMaxT set to 4.39D-01
 ITU=  1  1  0
     Eigenvalues ---    0.00396   0.00422   0.01674   0.03699   0.04381
     Eigenvalues ---    0.05347   0.05429   0.05506   0.05732   0.08032
     Eigenvalues ---    0.10638   0.12013   0.13670   0.15181   0.16000
     Eigenvalues ---    0.16002   0.16808   0.21098   0.21865   0.29658
     Eigenvalues ---    0.30640   0.32231   0.32320   0.32371   0.32413
     Eigenvalues ---    0.32501   0.32536   0.35875   0.49026   0.52305
 En-DIIS/RFO-DIIS/Sim-DIIS IScMMF=       -3 using points:     3    2
 RFO step:  Lambda=-2.45358236D-05.
 DidBck=F Rises=F RFO-DIIS coefs:    1.20920   -0.20920
 Iteration  1 RMS(Cart)=  0.00272149 RMS(Int)=  0.00000416
 Iteration  2 RMS(Cart)=  0.00000346 RMS(Int)=  0.00000158
 Iteration  3 RMS(Cart)=  0.00000000 RMS(Int)=  0.00000158
 Variable       Old X    -DE/DX   Delta X   Delta X   Delta X     New X
                                 (Linear)    (Quad)   (Total)
    R1        2.86012  -0.00124   0.00036  -0.00434  -0.00398   2.85614
    R2        2.07360   0.00003   0.00102  -0.00049   0.00053   2.07413
    R3        2.07481   0.00013   0.00109  -0.00021   0.00089   2.07570
    R4        2.07478   0.00014   0.00111  -0.00020   0.00091   2.07569
    R5        2.88960  -0.00129   0.00068  -0.00462  -0.00394   2.88566
    R6        2.09254   0.00029   0.00045   0.00065   0.00110   2.09364
    R7        2.09256   0.00030   0.00049   0.00066   0.00116   2.09372
    R8        2.66456  -0.00082   0.00158  -0.00250  -0.00092   2.66364
    R9        2.09322   0.00020  -0.00005   0.00059   0.00054   2.09377
   R10        2.09345   0.00020   0.00010   0.00054   0.00064   2.09409
   R11        1.78799   0.00102  -0.00095   0.00227   0.00132   1.78931
    A1        1.93875   0.00012   0.00127   0.00032   0.00158   1.94033
    A2        1.94923   0.00004   0.00077  -0.00011   0.00065   1.94988
    A3        1.94900   0.00006   0.00078  -0.00004   0.00074   1.94975
    A4        1.87462  -0.00007  -0.00080   0.00002  -0.00079   1.87382
    A5        1.87475  -0.00008  -0.00083  -0.00003  -0.00086   1.87388
    A6        1.87365  -0.00008  -0.00137  -0.00017  -0.00153   1.87212
    A7        1.93263  -0.00041   0.00037  -0.00166  -0.00129   1.93133
    A8        1.92144   0.00018   0.00114   0.00072   0.00185   1.92329
    A9        1.92098   0.00019   0.00118   0.00081   0.00199   1.92297
   A10        1.92113   0.00013   0.00027   0.00051   0.00077   1.92190
   A11        1.92095   0.00013   0.00020   0.00052   0.00071   1.92167
   A12        1.84488  -0.00020  -0.00329  -0.00081  -0.00411   1.84077
   A13        1.88117  -0.00068  -0.00022  -0.00279  -0.00301   1.87816
   A14        1.93077   0.00029   0.00147   0.00099   0.00246   1.93323
   A15        1.93110   0.00028   0.00124   0.00106   0.00230   1.93340
   A16        1.92782   0.00019   0.00013   0.00071   0.00084   1.92867
   A17        1.91870   0.00022   0.00023   0.00096   0.00120   1.91990
   A18        1.87474  -0.00028  -0.00281  -0.00087  -0.00368   1.87106
   A19        1.86152  -0.00065   0.00309  -0.00547  -0.00238   1.85915
    D1        3.13897   0.00000   0.00032   0.00085   0.00117   3.14014
    D2        1.01054  -0.00001  -0.00103   0.00083  -0.00019   1.01035
    D3       -1.01631   0.00002   0.00161   0.00093   0.00254  -1.01376
    D4        1.04652  -0.00001  -0.00003   0.00068   0.00065   1.04717
    D5       -1.08191  -0.00003  -0.00137   0.00067  -0.00071  -1.08262
    D6       -3.10876   0.00000   0.00126   0.00077   0.00203  -3.10673
    D7       -1.05174   0.00002   0.00065   0.00100   0.00165  -1.05009
    D8        3.10301   0.00001  -0.00070   0.00099   0.00029   3.10330
    D9        1.07617   0.00004   0.00194   0.00109   0.00303   1.07919
   D10        3.13642   0.00001  -0.00023  -0.00052  -0.00075   3.13567
   D11       -1.03743  -0.00001   0.00066  -0.00081  -0.00015  -1.03758
   D12        1.03804   0.00000  -0.00111  -0.00058  -0.00169   1.03636
   D13       -1.01815   0.00005   0.00163  -0.00038   0.00124  -1.01691
   D14        1.09118   0.00003   0.00252  -0.00067   0.00185   1.09303
   D15       -3.11653   0.00004   0.00075  -0.00044   0.00030  -3.11622
   D16        1.00849  -0.00004  -0.00210  -0.00077  -0.00287   1.00562
   D17        3.11783  -0.00006  -0.00121  -0.00106  -0.00227   3.11556
   D18       -1.08988  -0.00005  -0.00298  -0.00083  -0.00381  -1.09369
   D19        3.05423   0.00007   0.00105   0.00378   0.00482   3.05906
   D20        0.94305   0.00002  -0.00069   0.00389   0.00320   0.94625
   D21       -1.12278   0.00012   0.00255   0.00392   0.00648  -1.11631
         Item               Value     Threshold  Converged?
 Maximum Force            0.001290     0.000450     NO 
 RMS     Force            0.000365     0.000300     NO 
 Maximum Displacement     0.006448     0.001800     NO 
 RMS     Displacement     0.002723     0.001200     NO 
 Predicted change in Energy=-1.227055D-05
 GradGradGradGradGradGradGradGradGradGradGradGradGradGradGradGradGradGrad

                          Input orientation:                          
 ---------------------------------------------------------------------
 Center     Atomic      Atomic             Coordinates (Angstroms)
 Number     Number       Type             X           Y           Z
 ---------------------------------------------------------------------
      1          6           0        1.536216    1.320353    0.197049
      2          6           0        3.039492    1.308489    0.040975
      3          6           0        3.540590   -0.106002   -0.241723
      4          8           0        4.941563   -0.041842   -0.382983
      5          1           0        1.166927    2.333403    0.402097
      6          1           0        1.208484    0.678046    1.025626
      7          1           0        1.030598    0.964611   -0.710856
      8          1           0        3.522069    1.708201    0.954652
      9          1           0        3.344210    1.991005   -0.776867
     10          1           0        3.264711   -0.792635    0.582916
     11          1           0        3.084136   -0.506813   -1.168536
     12          1           0        5.243185   -0.933738   -0.483442
 ---------------------------------------------------------------------
                    Distance matrix (angstroms):
                    1          2          3          4          5
     1  C    0.000000
     2  C    1.511403   0.000000
     3  C    2.498905   1.527024   0.000000
     4  O    3.713274   2.370867   1.409538   0.000000
     5  H    1.097583   2.165031   3.464026   4.528357   0.000000
     6  H    1.098411   2.172461   2.767602   4.054417   1.769385
     7  H    1.098405   2.172362   2.768819   4.051678   1.769419
     8  H    2.160556   1.107907   2.173244   2.620474   2.498577
     9  H    2.160354   1.107947   2.173104   2.615177   2.499551
    10  H    2.757048   2.181547   1.107973   2.075689   3.769020
    11  H    2.756704   2.181795   1.108143   2.069620   3.769537
    12  H    4.391540   3.187297   1.908509   0.946862   5.298516
                    6          7          8          9         10
     6  H    0.000000
     7  H    1.768936   0.000000
     8  H    2.533561   3.087762   0.000000
     9  H    3.087745   2.531925   1.763454   0.000000
    10  H    2.566508   3.122983   2.541379   3.099030   0.000000
    11  H    3.120306   2.567407   3.099355   2.541680   1.783784
    12  H    4.599342   4.626158   3.465574   3.499476   2.251975
                   11         12
    11  H    0.000000
    12  H    2.305019   0.000000
 Stoichiometry    C3H8O
 Framework group  C1[X(C3H8O)]
 Deg. of freedom    30
 Full point group                 C1      NOp   1
 Largest Abelian subgroup         C1      NOp   1
 Largest concise Abelian subgroup C1      NOp   1
                         Standard orientation:                         
 ---------------------------------------------------------------------
 Center     Atomic      Atomic             Coordinates (Angstroms)
 Number     Number       Type             X           Y           Z
 ---------------------------------------------------------------------
      1          6           0        1.866358   -0.156135   -0.000285
      2          6           0        0.524687    0.539741   -0.003947
      3          6           0       -0.611391   -0.480587    0.003815
      4          8           0       -1.826354    0.234006    0.007889
      5          1           0        2.689505    0.569860   -0.007307
      6          1           0        1.991593   -0.802180   -0.879744
      7          1           0        1.994012   -0.787906    0.889133
      8          1           0        0.438361    1.199393   -0.889873
      9          1           0        0.439835    1.210827    0.873544
     10          1           0       -0.552466   -1.140870   -0.883968
     11          1           0       -0.550501   -1.129832    0.899781
     12          1           0       -2.517432   -0.409461   -0.062176
 ---------------------------------------------------------------------
 Rotational constants (GHZ):          26.0052272           3.8831154           3.6078714
 Standard basis: VSTO-6G (5D, 7F)
 There are    24 symmetry adapted cartesian basis functions of A   symmetry.
 There are    24 symmetry adapted basis functions of A   symmetry.
    24 basis functions,   144 primitive gaussians,    24 cartesian basis functions
    13 alpha electrons       13 beta electrons
       nuclear repulsion energy        94.3853750924 Hartrees.
 Integral buffers will be    131072 words long.
 Regular integral format.
 Two-electron integral symmetry is turned off.
 Do NDO integrals.
 One-electron integrals computed using PRISM.
 NBasis=    24 RedAO= F EigKep=  0.00D+00  NBF=    24
 NBsUse=    24 1.00D-04 EigRej=  0.00D+00 NBFU=    24
 Initial guess from the checkpoint file:  "/scratch/866507/Gau-24676.chk"
 B after Tr=    -0.000000   -0.000000   -0.000000
         Rot=    1.000000   -0.000186    0.000018   -0.000109 Ang=  -0.02 deg.
 Keep J ints in memory in canonical form, NReq=860523.
 Overlap will be assumed to be unity.
 Requested convergence on RMS density matrix=1.00D-08 within 128 cycles.
 Requested convergence on MAX density matrix=1.00D-06.
 Requested convergence on             energy=1.00D-06.
 No special actions if energy rises.
 SCF Done:  E(RPM3) = -0.991196508958E-01 A.U. after   10 cycles
            NFock=  9  Conv=0.25D-08     -V/T= 0.9977
 Calling FoFJK, ICntrl=      2127 FMM=F ISym2X=0 I1Cent= 0 IOpClX= 0 NMat=1 NMatS=1 NMatT=0.
 ***** Axes restored to original set *****
 -------------------------------------------------------------------
 Center     Atomic                   Forces (Hartrees/Bohr)
 Number     Number              X              Y              Z
 -------------------------------------------------------------------
      1        6          -0.000219712    0.000117417    0.000041345
      2        6          -0.000141771   -0.000066973   -0.000030019
      3        6           0.000456710    0.000122188   -0.000127192
      4        8          -0.000142508    0.000239076    0.000201502
      5        1           0.000007937   -0.000123731   -0.000026729
      6        1           0.000015883    0.000075795   -0.000059286
      7        1           0.000026017    0.000047774    0.000079778
      8        1           0.000017585    0.000059000    0.000084420
      9        1           0.000007124    0.000090883   -0.000048485
     10        1          -0.000026786   -0.000083144    0.000102025
     11        1          -0.000072119   -0.000116534   -0.000053574
     12        1           0.000071639   -0.000361751   -0.000163785
 -------------------------------------------------------------------
 Cartesian Forces:  Max     0.000456710 RMS     0.000140043

 GradGradGradGradGradGradGradGradGradGradGradGradGradGradGradGradGradGrad
 Berny optimization.
 Using GEDIIS/GDIIS optimizer.
 FormGI is forming the generalized inverse of G from B-inverse, IUseBI=4.
 Internal  Forces:  Max     0.000380949 RMS     0.000101047
 Search for a local minimum.
 Step number   4 out of a maximum of   61
 All quantities printed in internal units (Hartrees-Bohrs-Radians)
 Mixed Optimization -- En-DIIS/RFO-DIIS
 Swapping is turned off.
 Update second derivatives using D2CorX and points    1    2    3    4
 DE= -1.19D-05 DEPred=-1.23D-05 R= 9.69D-01
 TightC=F SS=  1.41D+00  RLast= 1.59D-02 DXNew= 7.3802D-01 4.7611D-02
 Trust test= 9.69D-01 RLast= 1.59D-02 DXMaxT set to 4.39D-01
 ITU=  1  1  1  0
     Eigenvalues ---    0.00395   0.00421   0.01498   0.03695   0.04174
     Eigenvalues ---    0.05352   0.05432   0.05492   0.05654   0.08113
     Eigenvalues ---    0.10483   0.12011   0.13657   0.15243   0.16000
     Eigenvalues ---    0.16001   0.16847   0.21847   0.23071   0.29577
     Eigenvalues ---    0.31540   0.32225   0.32313   0.32412   0.32501
     Eigenvalues ---    0.32535   0.35007   0.37579   0.48818   0.50070
 En-DIIS/RFO-DIIS/Sim-DIIS IScMMF=       -3 using points:     4    3    2
 RFO step:  Lambda=-2.64421459D-06.
 DidBck=F Rises=F RFO-DIIS coefs:    1.35867   -0.34329   -0.01538
 Iteration  1 RMS(Cart)=  0.00123071 RMS(Int)=  0.00000242
 Iteration  2 RMS(Cart)=  0.00000224 RMS(Int)=  0.00000027
 Iteration  3 RMS(Cart)=  0.00000000 RMS(Int)=  0.00000027
 Variable       Old X    -DE/DX   Delta X   Delta X   Delta X     New X
                                 (Linear)    (Quad)   (Total)
    R1        2.85614   0.00017  -0.00140   0.00155   0.00015   2.85628
    R2        2.07413  -0.00012   0.00027  -0.00058  -0.00031   2.07382
    R3        2.07570  -0.00009   0.00040  -0.00059  -0.00019   2.07550
    R4        2.07569  -0.00009   0.00041  -0.00060  -0.00019   2.07550
    R5        2.88566   0.00029  -0.00136   0.00189   0.00053   2.88619
    R6        2.09364   0.00010   0.00043  -0.00003   0.00040   2.09404
    R7        2.09372   0.00009   0.00045  -0.00006   0.00039   2.09410
    R8        2.66364  -0.00008  -0.00022  -0.00003  -0.00025   2.66339
    R9        2.09377   0.00013   0.00019   0.00025   0.00044   2.09421
   R10        2.09409   0.00012   0.00024   0.00017   0.00040   2.09449
   R11        1.78931   0.00038   0.00040   0.00043   0.00083   1.79014
    A1        1.94033   0.00004   0.00066  -0.00030   0.00036   1.94069
    A2        1.94988   0.00001   0.00029  -0.00013   0.00016   1.95004
    A3        1.94975   0.00002   0.00032  -0.00011   0.00021   1.94996
    A4        1.87382  -0.00003  -0.00034   0.00003  -0.00031   1.87351
    A5        1.87388  -0.00003  -0.00037   0.00003  -0.00034   1.87354
    A6        1.87212  -0.00001  -0.00065   0.00052  -0.00013   1.87198
    A7        1.93133   0.00018  -0.00044   0.00123   0.00080   1.93213
    A8        1.92329  -0.00008   0.00075  -0.00099  -0.00024   1.92305
    A9        1.92297  -0.00008   0.00080  -0.00099  -0.00019   1.92278
   A10        1.92190  -0.00004   0.00030  -0.00017   0.00012   1.92202
   A11        1.92167  -0.00003   0.00027  -0.00008   0.00019   1.92185
   A12        1.84077   0.00002  -0.00171   0.00096  -0.00075   1.84002
   A13        1.87816   0.00025  -0.00110   0.00204   0.00094   1.87911
   A14        1.93323  -0.00004   0.00099  -0.00088   0.00011   1.93334
   A15        1.93340  -0.00004   0.00092  -0.00074   0.00018   1.93358
   A16        1.92867  -0.00010   0.00031  -0.00068  -0.00037   1.92830
   A17        1.91990  -0.00007   0.00045  -0.00031   0.00014   1.92003
   A18        1.87106  -0.00001  -0.00153   0.00052  -0.00101   1.87005
   A19        1.85915  -0.00007  -0.00063  -0.00001  -0.00064   1.85851
    D1        3.14014   0.00000   0.00044   0.00022   0.00066   3.14080
    D2        1.01035  -0.00003  -0.00014   0.00028   0.00014   1.01049
    D3       -1.01376   0.00003   0.00103   0.00028   0.00131  -1.01246
    D4        1.04717   0.00001   0.00023   0.00047   0.00071   1.04788
    D5       -1.08262  -0.00002  -0.00035   0.00053   0.00018  -1.08244
    D6       -3.10673   0.00004   0.00082   0.00053   0.00135  -3.10538
    D7       -1.05009  -0.00000   0.00064  -0.00002   0.00062  -1.04947
    D8        3.10330  -0.00003   0.00005   0.00004   0.00009   3.10340
    D9        1.07919   0.00003   0.00123   0.00003   0.00126   1.08045
   D10        3.13567   0.00001  -0.00029   0.00004  -0.00025   3.13542
   D11       -1.03758   0.00002  -0.00000  -0.00003  -0.00003  -1.03761
   D12        1.03636  -0.00004  -0.00069  -0.00042  -0.00111   1.03524
   D13       -1.01691   0.00002   0.00057  -0.00050   0.00006  -1.01685
   D14        1.09303   0.00003   0.00085  -0.00057   0.00027   1.09330
   D15       -3.11622  -0.00003   0.00016  -0.00097  -0.00080  -3.11703
   D16        1.00562   0.00000  -0.00119   0.00052  -0.00067   1.00495
   D17        3.11556   0.00002  -0.00090   0.00045  -0.00046   3.11510
   D18       -1.09369  -0.00005  -0.00159   0.00005  -0.00153  -1.09523
   D19        3.05906   0.00007   0.00181   0.00265   0.00445   3.06351
   D20        0.94625   0.00002   0.00110   0.00285   0.00395   0.95020
   D21       -1.11631   0.00013   0.00251   0.00282   0.00533  -1.11098
         Item               Value     Threshold  Converged?
 Maximum Force            0.000381     0.000450     YES
 RMS     Force            0.000101     0.000300     YES
 Maximum Displacement     0.005916     0.001800     NO 
 RMS     Displacement     0.001231     0.001200     NO 
 Predicted change in Energy=-1.322039D-06
 GradGradGradGradGradGradGradGradGradGradGradGradGradGradGradGradGradGrad

                          Input orientation:                          
 ---------------------------------------------------------------------
 Center     Atomic      Atomic             Coordinates (Angstroms)
 Number     Number       Type             X           Y           Z
 ---------------------------------------------------------------------
      1          6           0        1.535864    1.320644    0.196866
      2          6           0        3.039275    1.308473    0.041375
      3          6           0        3.541434   -0.105969   -0.241197
      4          8           0        4.942318   -0.042254   -0.382252
      5          1           0        1.166320    2.333594    0.401066
      6          1           0        1.207591    0.679080    1.025669
      7          1           0        1.030390    0.964458   -0.710824
      8          1           0        3.521404    1.708725    0.955307
      9          1           0        3.344359    1.991588   -0.776109
     10          1           0        3.265551   -0.793041    0.583391
     11          1           0        3.084837   -0.507670   -1.167809
     12          1           0        5.242837   -0.934547   -0.486573
 ---------------------------------------------------------------------
                    Distance matrix (angstroms):
                    1          2          3          4          5
     1  C    0.000000
     2  C    1.511480   0.000000
     3  C    2.499887   1.527303   0.000000
     4  O    3.714403   2.371812   1.409408   0.000000
     5  H    1.097419   2.165229   3.464843   4.529503   0.000000
     6  H    1.098309   2.172565   2.769129   4.055952   1.768968
     7  H    1.098305   2.172503   2.769785   4.052728   1.768986
     8  H    2.160603   1.108116   2.173738   2.621829   2.498813
     9  H    2.160440   1.108152   2.173641   2.616316   2.499312
    10  H    2.758420   2.182050   1.108208   2.075499   3.770393
    11  H    2.757605   2.182332   1.108356   2.069769   3.770260
    12  H    4.392565   3.188346   1.908277   0.947302   5.299683
                    6          7          8          9         10
     6  H    0.000000
     7  H    1.768686   0.000000
     8  H    2.533545   3.087892   0.000000
     9  H    3.087857   2.532531   1.763280   0.000000
    10  H    2.568648   3.124059   2.542168   3.099776   0.000000
    11  H    3.121502   2.568414   3.100100   2.543044   1.783479
    12  H    4.601509   4.626145   3.468319   3.500045   2.252667
                   11         12
    11  H    0.000000
    12  H    2.302883   0.000000
 Stoichiometry    C3H8O
 Framework group  C1[X(C3H8O)]
 Deg. of freedom    30
 Full point group                 C1      NOp   1
 Largest Abelian subgroup         C1      NOp   1
 Largest concise Abelian subgroup C1      NOp   1
                         Standard orientation:                         
 ---------------------------------------------------------------------
 Center     Atomic      Atomic             Coordinates (Angstroms)
 Number     Number       Type             X           Y           Z
 ---------------------------------------------------------------------
      1          6           0        1.866904   -0.156289   -0.000095
      2          6           0        0.525120    0.539538   -0.003925
      3          6           0       -0.611915   -0.480145    0.003419
      4          8           0       -1.826917    0.234125    0.007685
      5          1           0        2.690142    0.569362   -0.006137
      6          1           0        1.992803   -0.801614   -0.879860
      7          1           0        1.994355   -0.788694    0.888778
      8          1           0        0.439387    1.199799   -0.889717
      9          1           0        0.440475    1.211040    0.873527
     10          1           0       -0.553388   -1.140498   -0.884631
     11          1           0       -0.551186   -1.130549    0.898819
     12          1           0       -2.517909   -0.410475   -0.058660
 ---------------------------------------------------------------------
 Rotational constants (GHZ):          26.0123944           3.8806148           3.6057572
 Standard basis: VSTO-6G (5D, 7F)
 There are    24 symmetry adapted cartesian basis functions of A   symmetry.
 There are    24 symmetry adapted basis functions of A   symmetry.
    24 basis functions,   144 primitive gaussians,    24 cartesian basis functions
    13 alpha electrons       13 beta electrons
       nuclear repulsion energy        94.3760065546 Hartrees.
 Integral buffers will be    131072 words long.
 Regular integral format.
 Two-electron integral symmetry is turned off.
 Do NDO integrals.
 One-electron integrals computed using PRISM.
 NBasis=    24 RedAO= F EigKep=  0.00D+00  NBF=    24
 NBsUse=    24 1.00D-04 EigRej=  0.00D+00 NBFU=    24
 Initial guess from the checkpoint file:  "/scratch/866507/Gau-24676.chk"
 B after Tr=     0.000000   -0.000000    0.000000
         Rot=    1.000000   -0.000144    0.000012    0.000053 Ang=  -0.02 deg.
 Keep J ints in memory in canonical form, NReq=860523.
 Overlap will be assumed to be unity.
 Requested convergence on RMS density matrix=1.00D-08 within 128 cycles.
 Requested convergence on MAX density matrix=1.00D-06.
 Requested convergence on             energy=1.00D-06.
 No special actions if energy rises.
 SCF Done:  E(RPM3) = -0.991213785171E-01 A.U. after    9 cycles
            NFock=  8  Conv=0.61D-08     -V/T= 0.9977
 Calling FoFJK, ICntrl=      2127 FMM=F ISym2X=0 I1Cent= 0 IOpClX= 0 NMat=1 NMatS=1 NMatT=0.
 ***** Axes restored to original set *****
 -------------------------------------------------------------------
 Center     Atomic                   Forces (Hartrees/Bohr)
 Number     Number              X              Y              Z
 -------------------------------------------------------------------
      1        6          -0.000106596   -0.000014300    0.000008588
      2        6           0.000066571   -0.000001496   -0.000037646
      3        6           0.000091052    0.000045198   -0.000085914
      4        8          -0.000005516   -0.000090889    0.000161065
      5        1           0.000019033    0.000009316   -0.000003349
      6        1           0.000025255    0.000008883   -0.000001996
      7        1           0.000023633    0.000004778    0.000001525
      8        1          -0.000027390   -0.000036051    0.000003174
      9        1          -0.000027074   -0.000029587    0.000000034
     10        1           0.000000377    0.000041711    0.000056362
     11        1          -0.000033430   -0.000005985    0.000010114
     12        1          -0.000025914    0.000068422   -0.000111957
 -------------------------------------------------------------------
 Cartesian Forces:  Max     0.000161065 RMS     0.000052423

 GradGradGradGradGradGradGradGradGradGradGradGradGradGradGradGradGradGrad
 Berny optimization.
 Using GEDIIS/GDIIS optimizer.
 FormGI is forming the generalized inverse of G from B-inverse, IUseBI=4.
 Internal  Forces:  Max     0.000087607 RMS     0.000027493
 Search for a local minimum.
 Step number   5 out of a maximum of   61
 All quantities printed in internal units (Hartrees-Bohrs-Radians)
 Mixed Optimization -- En-DIIS/RFO-DIIS
 Swapping is turned off.
 Update second derivatives using D2CorX and points    1    2    3    4    5
 DE= -1.73D-06 DEPred=-1.32D-06 R= 1.31D+00
 TightC=F SS=  1.41D+00  RLast= 9.03D-03 DXNew= 7.3802D-01 2.7087D-02
 Trust test= 1.31D+00 RLast= 9.03D-03 DXMaxT set to 4.39D-01
 ITU=  1  1  1  1  0
     Eigenvalues ---    0.00388   0.00412   0.00722   0.03689   0.04667
     Eigenvalues ---    0.05308   0.05427   0.05489   0.05673   0.08111
     Eigenvalues ---    0.11118   0.12018   0.13644   0.15368   0.15998
     Eigenvalues ---    0.16002   0.17310   0.21853   0.22550   0.29849
     Eigenvalues ---    0.31897   0.32217   0.32300   0.32412   0.32502
     Eigenvalues ---    0.32536   0.35830   0.39274   0.49638   0.58202
 En-DIIS/RFO-DIIS/Sim-DIIS IScMMF=       -3 using points:     5    4    3    2
 RFO step:  Lambda=-1.89990669D-06.
 DidBck=F Rises=F RFO-DIIS coefs:    2.74880   -1.66716   -0.12715    0.04551
 Iteration  1 RMS(Cart)=  0.00195023 RMS(Int)=  0.00000882
 Iteration  2 RMS(Cart)=  0.00000819 RMS(Int)=  0.00000045
 Iteration  3 RMS(Cart)=  0.00000000 RMS(Int)=  0.00000045
 Variable       Old X    -DE/DX   Delta X   Delta X   Delta X     New X
                                 (Linear)    (Quad)   (Total)
    R1        2.85628   0.00004  -0.00015   0.00013  -0.00002   2.85627
    R2        2.07382   0.00000  -0.00072   0.00064  -0.00008   2.07374
    R3        2.07550  -0.00001  -0.00050   0.00045  -0.00005   2.07545
    R4        2.07550  -0.00001  -0.00050   0.00045  -0.00004   2.07545
    R5        2.88619  -0.00005   0.00046  -0.00070  -0.00024   2.88594
    R6        2.09404  -0.00002   0.00069  -0.00046   0.00023   2.09427
    R7        2.09410  -0.00003   0.00067  -0.00045   0.00022   2.09432
    R8        2.66339  -0.00004  -0.00085   0.00059  -0.00026   2.66313
    R9        2.09421   0.00002   0.00083  -0.00046   0.00037   2.09458
   R10        2.09449   0.00001   0.00074  -0.00042   0.00032   2.09481
   R11        1.79014  -0.00006   0.00177  -0.00142   0.00035   1.79049
    A1        1.94069  -0.00002   0.00048  -0.00033   0.00015   1.94084
    A2        1.95004  -0.00002   0.00017  -0.00017  -0.00000   1.95004
    A3        1.94996  -0.00002   0.00026  -0.00019   0.00007   1.95003
    A4        1.87351   0.00002  -0.00043   0.00033  -0.00011   1.87341
    A5        1.87354   0.00002  -0.00048   0.00034  -0.00014   1.87340
    A6        1.87198   0.00002  -0.00006   0.00008   0.00002   1.87200
    A7        1.93213   0.00003   0.00121  -0.00076   0.00045   1.93258
    A8        1.92305  -0.00001  -0.00052   0.00038  -0.00014   1.92291
    A9        1.92278  -0.00001  -0.00042   0.00036  -0.00006   1.92272
   A10        1.92202  -0.00001   0.00022  -0.00022   0.00000   1.92203
   A11        1.92185  -0.00001   0.00034  -0.00024   0.00011   1.92196
   A12        1.84002   0.00002  -0.00093   0.00054  -0.00040   1.83962
   A13        1.87911   0.00005   0.00145  -0.00085   0.00061   1.87971
   A14        1.93334  -0.00003   0.00007  -0.00023  -0.00016   1.93318
   A15        1.93358  -0.00005   0.00023  -0.00032  -0.00009   1.93349
   A16        1.92830  -0.00001  -0.00060   0.00031  -0.00029   1.92801
   A17        1.92003   0.00002   0.00029   0.00043   0.00072   1.92076
   A18        1.87005   0.00003  -0.00146   0.00067  -0.00079   1.86926
   A19        1.85851   0.00001  -0.00198   0.00168  -0.00030   1.85820
    D1        3.14080   0.00000   0.00119  -0.00019   0.00099  -3.14139
    D2        1.01049   0.00001   0.00045   0.00034   0.00078   1.01127
    D3       -1.01246  -0.00000   0.00214  -0.00075   0.00139  -1.01107
    D4        1.04788   0.00000   0.00129  -0.00027   0.00103   1.04890
    D5       -1.08244   0.00001   0.00056   0.00026   0.00082  -1.08162
    D6       -3.10538  -0.00000   0.00225  -0.00083   0.00142  -3.10396
    D7       -1.04947  -0.00000   0.00107  -0.00012   0.00096  -1.04852
    D8        3.10340   0.00001   0.00034   0.00041   0.00075   3.10414
    D9        1.08045  -0.00001   0.00203  -0.00068   0.00135   1.08180
   D10        3.13542   0.00001  -0.00044   0.00025  -0.00019   3.13523
   D11       -1.03761   0.00000  -0.00022  -0.00004  -0.00026  -1.03787
   D12        1.03524  -0.00001  -0.00184   0.00044  -0.00140   1.03384
   D13       -1.01685   0.00000  -0.00014   0.00008  -0.00006  -1.01691
   D14        1.09330  -0.00001   0.00008  -0.00022  -0.00014   1.09317
   D15       -3.11703  -0.00002  -0.00154   0.00027  -0.00128  -3.11830
   D16        1.00495   0.00002  -0.00095   0.00046  -0.00049   1.00446
   D17        3.11510   0.00001  -0.00072   0.00017  -0.00056   3.11454
   D18       -1.09523  -0.00001  -0.00235   0.00065  -0.00170  -1.09692
   D19        3.06351   0.00007   0.00795   0.00098   0.00894   3.07244
   D20        0.95020   0.00009   0.00731   0.00162   0.00893   0.95912
   D21       -1.11098   0.00005   0.00930   0.00033   0.00963  -1.10135
         Item               Value     Threshold  Converged?
 Maximum Force            0.000088     0.000450     YES
 RMS     Force            0.000027     0.000300     YES
 Maximum Displacement     0.010995     0.001800     NO 
 RMS     Displacement     0.001950     0.001200     NO 
 Predicted change in Energy=-9.493797D-07
 GradGradGradGradGradGradGradGradGradGradGradGradGradGradGradGradGradGrad

                          Input orientation:                          
 ---------------------------------------------------------------------
 Center     Atomic      Atomic             Coordinates (Angstroms)
 Number     Number       Type             X           Y           Z
 ---------------------------------------------------------------------
      1          6           0        1.535729    1.320715    0.196413
      2          6           0        3.039243    1.308327    0.042015
      3          6           0        3.542023   -0.105861   -0.240038
      4          8           0        4.942858   -0.042532   -0.380355
      5          1           0        1.165932    2.333806    0.399232
      6          1           0        1.206852    0.680116    1.025687
      7          1           0        1.030841    0.963598   -0.711209
      8          1           0        3.520667    1.708884    0.956332
      9          1           0        3.345008    1.991704   -0.775150
     10          1           0        3.265797   -0.792890    0.584734
     11          1           0        3.085072   -0.508290   -1.166362
     12          1           0        5.242158   -0.934497   -0.492391
 ---------------------------------------------------------------------
                    Distance matrix (angstroms):
                    1          2          3          4          5
     1  C    0.000000
     2  C    1.511472   0.000000
     3  C    2.500164   1.527176   0.000000
     4  O    3.714785   2.372122   1.409269   0.000000
     5  H    1.097379   2.165296   3.465032   4.529890   0.000000
     6  H    1.098281   2.172537   2.769989   4.056712   1.768844
     7  H    1.098282   2.172525   2.769797   4.052855   1.768841
     8  H    2.160586   1.108238   2.173719   2.622369   2.499133
     9  H    2.160475   1.108266   2.173692   2.616697   2.498916
    10  H    2.758850   2.181968   1.108404   2.075324   3.770951
    11  H    2.757331   2.182285   1.108526   2.070291   3.769840
    12  H    4.392954   3.188837   1.908083   0.947488   5.300228
                    6          7          8          9         10
     6  H    0.000000
     7  H    1.768657   0.000000
     8  H    2.533163   3.087941   0.000000
     9  H    3.087877   2.533073   1.763200   0.000000
    10  H    2.569716   3.124059   2.542030   3.099923   0.000000
    11  H    3.121714   2.567778   3.100231   2.543734   1.783254
    12  H    4.603828   4.624483   3.471282   3.498826   2.255273
                   11         12
    11  H    0.000000
    12  H    2.299763   0.000000
 Stoichiometry    C3H8O
 Framework group  C1[X(C3H8O)]
 Deg. of freedom    30
 Full point group                 C1      NOp   1
 Largest Abelian subgroup         C1      NOp   1
 Largest concise Abelian subgroup C1      NOp   1
                         Standard orientation:                         
 ---------------------------------------------------------------------
 Center     Atomic      Atomic             Coordinates (Angstroms)
 Number     Number       Type             X           Y           Z
 ---------------------------------------------------------------------
      1          6           0        1.867064   -0.156352    0.000191
      2          6           0        0.525243    0.539384   -0.003773
      3          6           0       -0.612090   -0.479780    0.002719
      4          8           0       -1.827133    0.234147    0.007157
      5          1           0        2.690334    0.569214   -0.004226
      6          1           0        1.993717   -0.800446   -0.880334
      7          1           0        1.993932   -0.789915    0.888292
      8          1           0        0.439983    1.200240   -0.889320
      9          1           0        0.440471    1.210837    0.873848
     10          1           0       -0.553513   -1.139605   -0.885965
     11          1           0       -0.550995   -1.131604    0.897270
     12          1           0       -2.518173   -0.411407   -0.051643
 ---------------------------------------------------------------------
 Rotational constants (GHZ):          26.0202577           3.8798079           3.6051319
 Standard basis: VSTO-6G (5D, 7F)
 There are    24 symmetry adapted cartesian basis functions of A   symmetry.
[...]
 ! A6    A(6,1,7)              107.2714         -DE/DX =    0.0                 !
 ! A7    A(1,2,3)              110.7035         -DE/DX =    0.0                 !
 ! A8    A(1,2,8)              110.1636         -DE/DX =    0.0                 !
 ! A9    A(1,2,9)              110.1659         -DE/DX =    0.0                 !
 ! A10   A(3,2,8)              110.1122         -DE/DX =    0.0                 !
 ! A11   A(3,2,9)              110.1168         -DE/DX =    0.0                 !
 ! A12   A(8,2,9)              105.455          -DE/DX =    0.0                 !
 ! A13   A(2,3,4)              107.6593         -DE/DX =    0.0                 !
 ! A14   A(2,3,10)             110.7563         -DE/DX =    0.0                 !
 ! A15   A(2,3,11)             110.7589         -DE/DX =    0.0                 !
 ! A16   A(4,3,10)             110.2659         -DE/DX =    0.0                 !
 ! A17   A(4,3,11)             110.2655         -DE/DX =    0.0                 !
 ! A18   A(10,3,11)            107.157          -DE/DX =    0.0                 !
 ! A19   A(3,4,12)             106.4952         -DE/DX =    0.0                 !
 ! D1    D(5,1,2,3)            180.0478         -DE/DX =    0.0                 !
 ! D2    D(5,1,2,8)             58.0167         -DE/DX =    0.0                 !
 ! D3    D(5,1,2,9)            -57.9136         -DE/DX =    0.0                 !
 ! D4    D(6,1,2,3)             60.1359         -DE/DX =    0.0                 !
 ! D5    D(6,1,2,8)            -61.8952         -DE/DX =    0.0                 !
 ! D6    D(6,1,2,9)           -177.8255         -DE/DX =    0.0                 !
 ! D7    D(7,1,2,3)            -60.0401         -DE/DX =    0.0                 !
 ! D8    D(7,1,2,8)            177.9288         -DE/DX =    0.0                 !
 ! D9    D(7,1,2,9)             61.9985         -DE/DX =    0.0                 !
 ! D10   D(1,2,3,4)            179.9328         -DE/DX =    0.0                 !
 ! D11   D(1,2,3,10)           -59.4438         -DE/DX =    0.0                 !
 ! D12   D(1,2,3,11)            59.3084         -DE/DX =    0.0                 !
 ! D13   D(8,2,3,4)            -58.006          -DE/DX =    0.0                 !
 ! D14   D(8,2,3,10)            62.6175         -DE/DX =    0.0                 !
 ! D15   D(8,2,3,11)          -178.6304         -DE/DX =    0.0                 !
 ! D16   D(9,2,3,4)             57.8654         -DE/DX =    0.0                 !
 ! D17   D(9,2,3,10)           178.4888         -DE/DX =    0.0                 !
 ! D18   D(9,2,3,11)           -62.759          -DE/DX =    0.0                 !
 ! D19   D(2,3,4,12)           179.9932         -DE/DX =    0.0                 !
 ! D20   D(10,3,4,12)           59.0617         -DE/DX =    0.0                 !
 ! D21   D(11,3,4,12)          -59.0725         -DE/DX =    0.0                 !
 --------------------------------------------------------------------------------
 GradGradGradGradGradGradGradGradGradGradGradGradGradGradGradGradGradGrad


 ----------------------------------------------------------------------

 Electric dipole moment (input orientation):
 (Debye = 10**-18 statcoulomb cm , SI units = C m)
                  (au)            (Debye)         (10**-30 SI)
   Tot        0.560560D+00      0.142480D+01      0.475262D+01
   x         -0.339536D+00     -0.863013D+00     -0.287870D+01
   y         -0.444457D+00     -0.112970D+01     -0.376827D+01
   z         -0.374196D-01     -0.951112D-01     -0.317257D+00

 Dipole polarizability, Alpha (input orientation).
 (esu units = cm**3 , SI units = C**2 m**2 J**-1)
 Alpha(0;0):
               (au)            (10**-24 esu)      (10**-40 SI)
   iso        0.252371D+02      0.373975D+01      0.416103D+01
   aniso      0.523438D+01      0.775655D+00      0.863033D+00
   xx         0.268462D+02      0.397819D+01      0.442633D+01
   yx        -0.150453D+01     -0.222949D+00     -0.248064D+00
   yy         0.263824D+02      0.390947D+01      0.434987D+01
   zx        -0.692306D+00     -0.102589D+00     -0.114146D+00
   zy         0.803956D+00      0.119134D+00      0.132554D+00
   zz         0.224827D+02      0.333160D+01      0.370690D+01

 First dipole hyperpolarizability, Beta (input orientation).
 ||, _|_  parallel and perpendicular components, (z) with respect to z axis,
 vector components x,y,z.  Values do not include the 1/n! factor of 1/2.
 (esu units = statvolt**-1 cm**4 , SI units = C**3 m**3 J**-2)
 Beta(0;0,0):
               (au)            (10**-30 esu)      (10**-50 SI)
   || (z)    -0.210953D+01     -0.182247D-01     -0.676392D-02
   _|_(z)    -0.703177D+00     -0.607491D-02     -0.225464D-02
   x         -0.715421D+02     -0.618068D+00     -0.229390D+00
   y         -0.110523D+03     -0.954831D+00     -0.354376D+00
   z         -0.105477D+02     -0.911236D-01     -0.338196D-01
   ||         0.264158D+02      0.228212D+00      0.846985D-01
   xxx       -0.124231D+02     -0.107326D+00     -0.398329D-01
   xxy       -0.174493D+02     -0.150748D+00     -0.559486D-01
   yxy        0.471066D+01      0.406965D-01      0.151041D-01
   yyy       -0.556854D+01     -0.481078D-01     -0.178547D-01
   xxz       -0.496358D+01     -0.428815D-01     -0.159150D-01
   yxz        0.383559D+01      0.331365D-01      0.122983D-01
   yyz        0.310800D+01      0.268507D-01      0.996537D-02
   zxz       -0.161349D+02     -0.139393D+00     -0.517345D-01
   zyz       -0.138231D+02     -0.119421D+00     -0.443220D-01
   zzz       -0.166030D+01     -0.143437D-01     -0.532354D-02

 ----------------------------------------------------------------------

 Dipole orientation:
     6          0.69848968         -0.38760477         -3.76126803
     6          2.26483807         -2.08226107         -5.44478529
     6          3.90178601         -3.85835339         -3.86513484
     8          5.30148499         -5.37683063         -5.54682076
     1         -0.48531149          0.89440917         -4.88192268
     1          1.88934374          0.78566571         -2.53130379
     1         -0.56595298         -1.48245265         -2.53243185
     1          3.46911955         -0.92821249         -6.71069504
     1          1.02006524         -3.18836889         -6.71432900
     1          5.19191736         -2.77143491         -2.62386498
     1          2.71351427         -5.05589560         -2.62394874
     1          6.30323645         -6.46343341         -4.53682270

 Electric dipole moment (dipole orientation):
 (Debye = 10**-18 statcoulomb cm , SI units = C m)
                  (au)            (Debye)         (10**-30 SI)
   Tot        0.560560D+00      0.142480D+01      0.475262D+01
   x          0.000000D+00      0.000000D+00      0.000000D+00
   y          0.000000D+00      0.000000D+00      0.000000D+00
   z          0.560560D+00      0.142480D+01      0.475262D+01

 Dipole polarizability, Alpha (dipole orientation).
 (esu units = cm**3 , SI units = C**2 m**2 J**-1)
 Alpha(0;0):
               (au)            (10**-24 esu)      (10**-40 SI)
   iso        0.252371D+02      0.373975D+01      0.416103D+01
   aniso      0.523438D+01      0.775655D+00      0.863033D+00
   xx         0.250521D+02      0.371233D+01      0.413053D+01
   yx        -0.300053D+01     -0.444632D+00     -0.494720D+00
   yy         0.255401D+02      0.378465D+01      0.421099D+01
   zx         0.165741D+00      0.245602D-01      0.273269D-01
   zy        -0.179730D+00     -0.266333D-01     -0.296335D-01
   zz         0.251192D+02      0.372227D+01      0.414159D+01

 First dipole hyperpolarizability, Beta (dipole orientation).
 ||, _|_  parallel and perpendicular components, (z) with respect to z axis,
 vector components x,y,z.  Values do not include the 1/n! factor of 1/2.
 (esu units = statvolt**-1 cm**4 , SI units = C**3 m**3 J**-2)
 Beta(0;0,0):
               (au)            (10**-30 esu)      (10**-50 SI)
   || (z)     0.263338D+02      0.227504D+00      0.844358D-01
   _|_(z)     0.877795D+01      0.758346D-01      0.281453D-01
   x          0.706993D+01      0.610787D-01      0.226688D-01
   y         -0.761844D+01     -0.658174D-01     -0.244275D-01
   z          0.131669D+03      0.113752D+01      0.422179D+00
   ||         0.264158D+02      0.228212D+00      0.846985D-01
   xxx        0.678262D+00      0.585966D-02      0.217475D-02
   xxy       -0.839966D+01     -0.725665D-01     -0.269323D-01
   yxy        0.975822D+01      0.843034D-01      0.312884D-01
   yyy       -0.287997D+01     -0.248807D-01     -0.923422D-02
   xxz        0.150618D+02      0.130122D+00      0.482934D-01
   yxz        0.704322D+01      0.608479D-01      0.225831D-01
   yyz        0.139319D+02      0.120361D+00      0.446708D-01
   zxz       -0.807984D+01     -0.698035D-01     -0.259069D-01
   zyz        0.874015D+01      0.755080D-01      0.280241D-01
   zzz        0.148961D+02      0.128690D+00      0.477622D-01

 ----------------------------------------------------------------------
 1\1\GINC-NODE625\Freq\RPM3\ZDO\C3H8O1\KOERSTZ\02-Nov-2018\0\\#N Geom=A
 llCheck Guess=TCheck SCRF=Check GenChk RPM3/ZDO Freq\\propanol.xyz\\0,
 1\C,1.5354559857,1.3209795513,0.1941214068\C,3.0395786454,1.3081146228
 ,0.0446129907\C,3.54261696,-0.1071837948,-0.2317054132\O,4.9446573277,
 -0.0450078399,-0.3607738499\H,1.1653692112,2.3349632624,0.3921688158\H
 ,1.2041520157,0.6832594348,1.0246490245\H,1.0336594504,0.9606324833,-0
 .7139456667\H,3.5178164085,1.710624267,0.9595455267\H,3.3479635783,1.9
 88723907,-0.7736191448\H,3.2630868004,-0.7915961929,0.5940127622\H,3.0
 892893466,-0.5111914734,-1.1588818698\H,5.2385342701,-0.9292382277,-0.
 5312745823\\Version=ES64L-G16RevA.03\State=1-A\HF=-0.0991298\RMSD=7.01
 0e-10\RMSF=6.839e-06\ZeroPoint=0.1063375\Thermal=0.1121727\Dipole=-0.3
 395356,-0.4444574,-0.0374196\DipoleDeriv=0.0150964,0.0134635,-0.001063
 5,0.048745,-0.0548899,-0.0108036,0.004601,-0.007264,-0.0192488,-0.0514
 813,-0.0224176,-0.0064056,-0.0348345,-0.0457285,0.0090945,-0.0084734,0
 .0077538,-0.0786013,0.5245845,0.038955,-0.0145437,-0.1048316,0.2589849
 ,0.0013634,-0.0375078,-0.0128049,0.3168554,-0.5707471,-0.0606389,-0.00
 41163,0.0711337,-0.2083455,0.0418587,0.0169697,0.0548972,-0.507018,-0.
 005623,0.0206935,0.0060823,-0.0067596,0.0132467,-0.0008028,0.0016833,-
 0.0035002,0.0217274,-0.0008418,-0.0097375,0.0107664,-0.0036155,0.01155
 69,0.009762,-0.0061688,0.0109071,0.0073506,-0.0018765,-0.007783,-0.012
 3648,-0.007099,0.0168872,-0.0057141,0.0056788,-0.0061911,0.0031152,0.0
 187376,0.0137251,0.0051376,0.0065784,0.018748,-0.0126005,0.0009476,0.0
 046998,0.0256867,0.018548,0.0130277,0.0007797,0.0083361,0.0177931,0.00
 83577,0.0030638,-0.0101527,0.027001,-0.0555447,0.0080088,-0.0163588,-0
 .0053225,-0.0515537,0.0216791,-0.0039877,-0.0126582,-0.0400645,-0.0511
 088,0.0042189,0.0201888,-0.0109265,-0.0478959,-0.0219567,0.003272,0.00
 95818,-0.0481154,0.1602534,-0.0115167,0.0118982,0.0385988,0.0711954,-0
 .0402383,0.0199224,-0.035269,0.291313\Polar=26.8461522,-1.504535,26.38
 23826,-0.6923058,0.803956,22.4827249\HyperPolar=-12.4230793,-17.449264
 ,4.7106628,-5.5685359,-4.9635811,3.8355896,3.1079981,-16.1349482,-13.8
 231363,-1.6603044\PG=C01 [X(C3H8O1)]\NImag=0\\0.53492584,-0.00703139,0
 .53742855,-0.00201560,0.00253990,0.52646494,-0.26692189,-0.00176171,0.
 01863026,0.55283462,-0.00293817,-0.07301130,0.00044402,0.00897484,0.51
 800250,0.01844072,0.00033214,-0.07574971,-0.00130450,-0.00200923,0.524
 85577,-0.02173046,0.03168540,0.00748229,-0.08432840,0.03650092,0.00673
 906,0.57670060,0.01487906,-0.00300816,-0.00238479,0.03473886,-0.220276
 80,-0.02663797,0.01600305,0.53470352,0.00478768,-0.00403317,0.00164532
 ,0.00645123,-0.02681133,-0.08027435,-0.00358407,0.00161443,0.51524810,
 -0.00002556,0.00055754,0.00011273,-0.02227111,0.02531093,0.00672418,-0
 .33032389,-0.05693997,0.01937382,0.46415567,0.00105153,-0.00418213,-0.
 00080776,0.04199939,-0.00306579,-0.00540980,-0.01832580,-0.08230544,-0
 .00445188,-0.11298774,0.56563473,0.00019081,-0.00075719,0.00007081,0.0
 0939453,-0.00375585,0.00318644,0.02554513,-0.00062167,-0.04573991,-0.0
 6145904,0.09739734,0.04813593,-0.06641905,0.07629640,0.01469868,-0.012
 53451,0.02465339,0.00546731,-0.00316707,-0.00091262,0.00020010,-0.0000
 0009,0.00074637,0.00012225,0.07676089,0.07878711,-0.26496727,-0.043512
 52,0.00461217,0.00227395,-0.00058438,-0.00053367,-0.00000682,-0.000007
 88,0.00009891,0.00014672,0.00000909,-0.08860236,0.30699140,0.01509575,
 -0.04326827,-0.04901977,0.00227013,-0.00254843,0.00247246,0.00026212,0
 .00002852,0.00034878,0.00001871,-0.00005431,0.00001852,-0.01746124,0.0
 5082640,0.05267262,-0.06096486,-0.04257832,0.05494116,-0.01209417,-0.0
 1548788,0.02103991,-0.00083596,0.00029983,0.00090217,0.00012951,-0.000
 09931,-0.00008958,0.00371824,0.00383824,-0.00411437,0.07048676,-0.0433
 8782,-0.12812555,0.11391451,-0.00325374,0.00309800,0.00037812,0.000723
 80,0.00039639,-0.00048518,-0.00005939,-0.00005140,-0.00001232,-0.00404
 337,-0.02785119,0.02231401,0.04886956,0.14657088,0.05633938,0.11413837
 ,-0.18920253,0.00540057,0.00191648,0.00035319,0.00082904,-0.00040153,-
 0.00017736,-0.00011005,0.00000452,0.00001978,-0.00073720,0.00510128,0.
 00268469,-0.06414296,-0.13451143,0.21780832,-0.09018022,-0.03741538,-0
 .09402866,-0.01711869,-0.00875142,-0.02150776,-0.00110247,0.00061679,-
 0.00054471,0.00015792,-0.00011953,0.00002703,0.00439126,0.00077922,0.0
 0351816,0.00406672,0.00165699,0.00203124,0.10414941,-0.03769678,-0.068
 45530,-0.07037325,-0.00187577,0.00320234,0.00025453,0.00100634,0.00012
 691,0.00036360,-0.00008477,-0.00005340,0.00000880,-0.00878838,-0.01693
 781,-0.02732780,0.00486503,0.00638736,0.01395095,0.04315932,0.07603610
 ,-0.09559827,-0.07070490,-0.21964817,-0.00282051,0.00059233,0.00527277
 ,-0.00034044,0.00035828,0.00035701,0.00005967,-0.00000079,-0.00000698,
 -0.00264242,-0.01182648,-0.00890369,-0.00829370,-0.00196881,-0.0319077
 6,0.10926495,0.08361539,0.25468597,-0.01635330,-0.00805481,-0.02046280
 ,-0.08330431,-0.03570354,-0.08463879,0.00686823,0.00243788,0.00599756,
 -0.00122831,0.00090644,0.00062296,-0.00145140,0.00068486,-0.00055465,-
 0.00093036,-0.00086411,0.00007286,-0.00285566,0.00016870,0.00079332,0.
 09508714,-0.00203797,0.00285189,-0.00083677,-0.03584974,-0.06983051,-0
 .06951498,-0.00748694,-0.01327340,-0.02216754,0.00216205,-0.00092171,-
 0.00107328,0.00055332,0.00007193,0.00023589,-0.00079860,-0.00020918,-0
 .00005200,0.00020835,0.00028762,-0.00018464,0.03861097,0.07957650,-0.0
 0253230,0.00010335,0.00469441,-0.08608863,-0.07157089,-0.20900520,-0.0
 0114853,-0.00706308,-0.00252106,0.00143180,-0.00144888,-0.00082881,-0.
 00062151,0.00016443,0.00009703,-0.00006014,0.00005003,0.00030965,0.000
 79467,-0.00011306,0.00004545,0.09657822,0.08102098,0.23926210,-0.01160
 464,-0.01442982,0.02009517,-0.05739760,-0.03859603,0.04777600,0.005630
 70,0.00512973,-0.00554673,-0.00149437,0.00127108,-0.00006509,-0.001143
 82,0.00040149,0.00096261,-0.00303087,0.00033240,-0.00009431,-0.0009332
 6,-0.00084335,-0.00010204,0.00446704,0.00413487,-0.00836470,0.06572618
 ,-0.00308806,0.00228632,0.00134858,-0.03957345,-0.12844558,0.10849766,
 -0.00347534,-0.02093268,0.01700092,0.00262657,-0.00155601,0.00030095,0
 .00024426,0.00021657,-0.00023338,0.00038432,0.00020018,0.00013510,-0.0
 0080426,-0.00020928,0.00004221,0.00117783,0.00499300,-0.00086895,0.042
 13485,0.14671360,0.00495080,0.00210752,0.00051084,0.04904579,0.1104407
 0,-0.17629968,-0.00137571,0.00007776,0.00637849,-0.00045658,0.00093762
 ,0.00005940,0.00098382,-0.00018965,-0.00035551,-0.00008037,0.00007352,
 0.00030849,0.00004719,-0.00004894,0.00031423,0.00169307,0.01283539,-0.
 03263195,-0.05509237,-0.12514054,0.20149392,-0.00039168,0.00092615,-0.
 00038412,0.00459311,0.00471115,-0.00446770,-0.05005160,-0.02918435,0.0
 3615944,-0.01378889,-0.01446474,0.01792340,0.00001748,-0.00001317,-0.0
 0000569,-0.00056539,0.00000792,0.00039874,-0.00002049,0.00001093,-0.00
 001066,0.00023060,-0.00042442,0.00001291,-0.00043373,0.00093983,0.0004
 7842,0.05684239,0.00086720,-0.00059587,0.00025821,-0.00177938,-0.01998
 525,0.01689193,-0.03263028,-0.12822487,0.10733982,-0.00232608,0.003794
 83,0.00100655,-0.00006669,0.00003072,-0.00000567,0.00067571,-0.0003714
 7,-0.00025071,0.00002385,-0.00005323,0.00001643,-0.00045701,-0.0011771
 9,-0.00020536,0.00103386,-0.00217113,-0.00088004,0.03412033,0.14313695
 ,-0.00037581,0.00004461,0.00028797,-0.00050655,0.00018889,0.00675947,0
 .03963082,0.10947918,-0.17716622,0.00292382,0.00075915,0.00360917,0.00
 000597,0.00000835,-0.00001635,-0.00013689,0.00026916,-0.00015865,-0.00
 002003,0.00000542,-0.00001387,-0.00012904,-0.00006126,0.00031627,0.000
 47660,-0.00086074,-0.00008622,-0.04452778,-0.12213218,0.19540525,-0.00
 017466,0.00070412,0.00072680,0.00556917,0.00232147,0.00516295,-0.07215
 042,-0.03018443,-0.07320247,-0.01756540,-0.00871998,-0.01744561,0.0000
 1374,-0.00001326,-0.00000428,-0.00001361,0.00000488,0.00001233,-0.0005
 8631,0.00006414,-0.00030667,-0.00053142,0.00109661,-0.00001939,0.00022
 724,-0.00042781,-0.00013078,0.00405432,0.00067709,0.00123975,0.0822297
 1,0.00060980,-0.00037951,-0.00059859,-0.00569920,-0.01235042,-0.022260
 73,-0.03191190,-0.07022550,-0.06868038,-0.00209627,0.00398783,-0.00106
 018,-0.00005760,0.00002462,0.00003110,0.00001213,-0.00004235,-0.000028
 33,0.00062332,-0.00032763,0.00006207,0.00118681,-0.00241629,-0.0001337
 3,-0.00047457,-0.00113094,-0.00017560,0.00347082,0.00496210,0.01256219
 ,0.03399221,0.07744492,0.00069233,-0.00040008,-0.00014891,-0.00111699,
 -0.00699550,-0.00185276,-0.07750249,-0.07132964,-0.21305393,0.00055355
 ,0.00104699,0.00719352,-0.00003143,0.00000769,-0.00000672,0.00002491,-
 0.00001530,-0.00003168,0.00042847,-0.00033961,-0.00019331,0.00001104,-
 0.00013575,0.00025676,-0.00000250,-0.00032729,0.00027670,-0.00738643,-
 0.00169550,-0.02911436,0.08544468,0.07997052,0.23571159,-0.00015947,0.
 00110196,0.00020411,-0.00702629,-0.00099579,0.00056861,-0.02550914,0.0
 4311636,0.00900588,-0.07774559,0.10874221,0.02523328,-0.00018569,-0.00
 003958,0.00001274,0.00003400,0.00001286,0.00000034,0.00003180,0.000014
 57,-0.00000322,0.00000176,-0.00016849,0.00001760,-0.00001286,-0.000138
 71,-0.00006327,-0.00048610,-0.00013856,0.00141917,-0.00107235,0.000344
 48,-0.00111515,0.11212978,-0.00001446,0.00015841,0.00000844,-0.0005324
 1,0.00038887,0.00006273,0.00844442,0.00302663,0.00031878,0.14373824,-0
 .48142809,-0.09144232,-0.00002263,0.00000718,0.00000194,0.00001925,-0.
 00000168,-0.00000273,0.00002271,-0.00000369,-0.00000104,-0.00009403,0.
 00004735,0.00006512,-0.00009449,0.00003595,-0.00003773,-0.00010043,0.0
 0065436,-0.00026275,0.00048495,0.00045317,0.00021340,-0.15185127,0.476
 66152,0.00002453,-0.00010230,0.00009494,0.00064464,0.00010883,0.000281
 63,0.00346265,-0.00311935,-0.00504607,0.03082748,-0.08797228,-0.015717
 17,0.00001568,0.00000367,0.00000791,0.00000985,-0.00000632,-0.00000614
 ,-0.00001055,0.00000399,-0.00000164,0.00001627,-0.00006610,0.00000541,
 -0.00004266,0.00010554,0.00003135,0.00180950,-0.00034334,0.00017765,-0
 .00147732,0.00031148,0.00096314,-0.03528007,0.09107614,0.01920909\\0.0
 0000675,-0.00000390,-0.00000194,0.00000927,0.00001320,-0.00000115,-0.0
 0002576,-0.00000755,0.00000090,0.00000402,-0.00000312,-0.00000228,-0.0
 0000205,0.00001129,-0.00000064,-0.00000114,-0.00000580,0.00000837,-0.0
 0000460,-0.00000664,-0.00000825,-0.00000172,-0.00000793,-0.00000009,0.
 00000281,-0.00000151,0.00000353,0.00000610,0.00000595,-0.00000300,0.00
 000244,0.00000122,0.00000433,0.00000388,0.00000480,0.00000021\\\@


 ERWIN WITH HIS PSI CAN DO
 CALCULATIONS QUITE A FEW.
 BUT ONE THING HAS NOT BEEN SEEN
 JUST WHAT DOES PSI REALLY MEAN.
 -- WALTER HUCKEL, TRANS. BY FELIX BLOCH
 Job cpu time:       0 days  0 hours  0 minutes  1.0 seconds.
 Elapsed time:       0 days  0 hours  0 minutes  5.0 seconds.
 File lengths (MBytes):  RWF=      6 Int=      0 D2E=      0 Chk=      2 Scr=      1
 Normal termination of Gaussian 16 at Fri Nov  2 15:23:47 2018.
