
                                 *****************
                                 * O   R   C   A *
                                 *****************

           --- An Ab Initio, DFT and Semiempirical electronic structure package ---

                  #######################################################
                  #                        -***-                        #
                  #  Department of molecular theory and spectroscopy    #
                  #              Directorship: Frank Neese              #
                  # Max Planck Institute for Chemical Energy Conversion #
                  #                  D-45470 Muelheim/Ruhr              #
                  #                       Germany                       #
                  #                                                     #
                  #                  All rights reserved                #
                  #                        -***-                        #
                  #######################################################


                         Program Version 4.0.0 -  RELEASE  -


 With contributions from (in alphabetic order):
   Daniel Aravena         : Magnetic Properties
   Michael Atanasov       : Ab Initio Ligand Field Theory
   Ute Becker             : Parallelization
   Martin Brehm           : Molecular dynamics
   Dmytro Bykov           : SCF Hessian
   Vijay G. Chilkuri      : MRCI spin determinant printing
   Dipayan Datta          : RHF DLPNO-CCSD density
   Achintya Kumar Dutta   : EOM-CC, STEOM-CC
   Dmitry Ganyushin       : Spin-Orbit,Spin-Spin,Magnetic field MRCI
   Yang Guo               : DLPNO-NEVPT2, CIM, IAO-localization
   Andreas Hansen         : Spin unrestricted coupled pair/coupled cluster methods
   Lee Huntington         : MR-EOM, pCC
   Robert Izsak           : Overlap fitted RIJCOSX, COSX-SCS-MP3, EOM
   Christian Kollmar      : KDIIS, OOCD, Brueckner-CCSD(T), CCSD density
   Simone Kossmann        : Meta GGA functionals, TD-DFT gradient, OOMP2, MP2 Hessian
   Martin Krupicka        : AUTO-CI
   Dagmar Lenk            : GEPOL surface
   Dimitrios Liakos       : Extrapolation schemes; parallel MDCI
   Dimitrios Manganas     : ROCIS; embedding schemes
   Dimitrios Pantazis     : SARC Basis sets
   Taras Petrenko         : DFT Hessian,TD-DFT gradient, ASA, ECA, R-Raman, ABS, FL, XAS/XES, NRVS
   Peter Pinski           : DLPNO-MP2
   Christoph Reimann      : Effective Core Potentials
   Marius Retegan         : Local ZFS, SOC
   Christoph Riplinger    : Optimizer, TS searches, QM/MM, DLPNO-CCSD(T), (RO)-DLPNO pert. Triples
   Tobias Risthaus        : Range-separated hybrids, TD-DFT gradient, RPA, STAB
   Michael Roemelt        : Restricted open shell CIS
   Masaaki Saitow         : Open-shell DLPNO
   Barbara Sandhoefer     : DKH picture change effects
   Kantharuban Sivalingam : CASSCF convergence, NEVPT2, FIC-MRCI
   Georgi Stoychev        : AutoAux
   Boris Wezisla          : Elementary symmetry handling
   Frank Wennmohs         : Technical directorship


 We gratefully acknowledge several colleagues who have allowed us to
 interface, adapt or use parts of their codes:
   Stefan Grimme, W. Hujo, H. Kruse,             : VdW corrections, initial TS optimization,
                  C. Bannwarth                     DFT functionals, gCP, sTDA/sTD-DF
   Ed Valeev                                     : LibInt (2-el integral package), F12 methods
   Garnet Chan, S. Sharma, J. Yang, R. Olivares  : DMRG
   Ulf Ekstrom                                   : XCFun DFT Library
   Mihaly Kallay                                 : mrcc  (arbitrary order and MRCC methods)
   Jiri Pittner, Ondrej Demel                    : Mk-CCSD
   Frank Weinhold                                : gennbo (NPA and NBO analysis)
   Christopher J. Cramer and Donald G. Truhlar   : smd solvation model


 Your calculation uses the libint2 library for the computation of 2-el integrals
 For citations please refer to: http://libint.valeyev.net

 This ORCA versions uses:
   CBLAS   interface :  Fast vector & matrix operations
   LAPACKE interface :  Fast linear algebra routines
   SCALAPACK package :  Parallel linear algebra routines


leaving
Your calculation utilizes the basis: def2-SVP
   F. Weigend and R. Ahlrichs, Phys. Chem. Chem. Phys. 7, 3297 (2005).

================================================================================
                                        WARNINGS
                       Please study these warnings very carefully!
================================================================================

Warning: TCutStore was < 0. Adjusted to Thresh (uncritical)

WARNING: Direct SCF is incompatible with Method<>HF and Method<>DFT
  ===> : conventional SCF is chosen

WARNING: The NDO methods need Guess=HUECKEL or Guess=HCORE or Guess=MOREAD
  ===> : Guess is set to Hueckel

WARNING: The NDO methods need %rel::SOCType==1
  ===> : %rel::SOCType is set to 1

WARNING: The NDO methods cannot have frozencore=1
  ===> : %method FrozenCore=0 end

WARNING: Analytical Hessian for frequencies calculation 
       : with Method<>HF or Method<>DFT is not available!
  ===> : Switching to Numerical Hessian!

WARNING: Geometry Optimization
  ===> : Switching off AutoStart
         For restart on a previous wavefunction, please use MOREAD

INFO   : the flag for use of LIBINT has been found!

================================================================================
                                       INPUT FILE
================================================================================
NAME = propanol_orca.inp
|  1> # ORCA input file
|  2> # propanol_xyz.xyz
|  3> ! pm3 opt freq
|  4> * xyz 0 1
|  5>    C        1.51778         1.31942         0.20030
|  6>    C        3.03508         1.31309         0.03796
|  7>    C        3.55739        -0.09409        -0.24789
|  8>    O        4.94969        -0.05094        -0.38676
|  9>    H        1.17070         2.35245         0.41324
| 10>    H        1.21678         0.66242         1.04409
| 11>    H        1.02809         0.96445        -0.73153
| 12>    H        3.50100         1.69514         0.97227
| 13>    H        3.31300         1.98843        -0.80039
| 14>    H        3.28452        -0.76021         0.60206
| 15>    H        3.10076        -0.47346        -1.18945
| 16>    H        5.24739        -0.99362        -0.47499
| 17> *
| 18> 
| 19>                          ****END OF INPUT****
================================================================================

                       *****************************
                       * Geometry Optimization Run *
                       *****************************

Geometry optimization settings:
Update method            Update   .... BFGS
Choice of coordinates    CoordSys .... Redundant Internals
Initial Hessian          InHess   .... Almoef's Model

Convergence Tolerances:
Energy Change            TolE     ....  5.0000e-06 Eh
Max. Gradient            TolMAXG  ....  3.0000e-04 Eh/bohr
RMS Gradient             TolRMSG  ....  1.0000e-04 Eh/bohr
Max. Displacement        TolMAXD  ....  4.0000e-03 bohr
RMS Displacement         TolRMSD  ....  2.0000e-03 bohr

------------------------------------------------------------------------------
                        ORCA OPTIMIZATION COORDINATE SETUP
------------------------------------------------------------------------------

The optimization will be done in new redundant internal coordinates
Making redundant internal coordinates   ...  (new redundants) done
Evaluating the initial hessian          ...  (Almloef) done
Evaluating the coordinates              ...  done
Calculating the B-matrix                .... done
Calculating the G-matrix                .... done
Diagonalizing the G-matrix              .... done
The first mode is                       ....   21
The number of degrees of freedom        ....   30

    -----------------------------------------------------------------
                    Redundant Internal Coordinates


    -----------------------------------------------------------------
         Definition                    Initial Value    Approx d2E/dq
    -----------------------------------------------------------------
      1. B(C   1,C   0)                  1.5260         0.379142   
      2. B(C   2,C   1)                  1.5280         0.376380   
      3. B(O   3,C   2)                  1.3999         0.539663   
      4. B(H   4,C   0)                  1.1104         0.334116   
      5. B(H   5,C   0)                  1.1110         0.333413   
      6. B(H   6,C   0)                  1.1109         0.333482   
      7. B(H   7,C   1)                  1.1117         0.332452   
      8. B(H   8,C   1)                  1.1118         0.332356   
      9. B(H   9,C   2)                  1.1138         0.329932   
     10. B(H  10,C   2)                  1.1131         0.330815   
     11. B(H  11,O   3)                  0.9925         0.461441   
     12. A(H   4,C   0,H   5)          108.6532         0.284018   
     13. A(H   5,C   0,H   6)          109.1892         0.283935   
     14. A(H   4,C   0,H   6)          108.6838         0.284027   
     15. A(C   1,C   0,H   6)          110.3489         0.321040   
     16. A(C   1,C   0,H   5)          110.3494         0.321029   
     17. A(C   1,C   0,H   4)          109.5762         0.321139   
     18. A(H   7,C   1,H   8)          108.6744         0.283658   
     19. A(C   2,C   1,H   8)          109.4443         0.320479   
     20. A(C   0,C   1,H   8)          109.0410         0.320862   
     21. A(C   2,C   1,H   7)          109.2958         0.320494   
     22. A(C   0,C   1,H   7)          109.0186         0.320877   
     23. A(C   0,C   1,C   2)          111.3223         0.364738   
     24. A(O   3,C   2,H   9)          109.7426         0.337670   
     25. A(C   1,C   2,H   9)          108.9215         0.320095   
     26. A(H   9,C   2,H  10)          109.9480         0.283119   
     27. A(O   3,C   2,H  10)          109.5487         0.337821   
     28. A(C   1,C   2,H  10)          109.3842         0.320235   
     29. A(C   1,C   2,O   3)          109.2782         0.385217   
     30. A(C   2,O   3,H  11)          106.1330         0.354160   
     31. D(H   8,C   1,C   0,H   4)    -59.5269         0.011459   
     32. D(C   2,C   1,C   0,H   5)     60.0252         0.011459   
     33. D(H   7,C   1,C   0,H   4)     58.9786         0.011459   
     34. D(H   8,C   1,C   0,H   5)   -179.1277         0.011459   
     35. D(C   2,C   1,C   0,H   6)    -60.7358         0.011459   
     36. D(H   7,C   1,C   0,H   6)    178.6168         0.011459   
     37. D(C   2,C   1,C   0,H   4)    179.6260         0.011459   
     38. D(H   8,C   1,C   0,H   6)     60.1112         0.011459   
     39. D(H   7,C   1,C   0,H   5)    -60.6221         0.011459   
     40. D(H   9,C   2,C   1,H   7)     60.4542         0.011302   
     41. D(H   9,C   2,C   1,C   0)    -60.0301         0.011302   
     42. D(O   3,C   2,C   1,H   8)     59.4784         0.011302   
     43. D(O   3,C   2,C   1,H   7)    -59.4271         0.011302   
     44. D(H   9,C   2,C   1,H   8)    179.3596         0.011302   
     45. D(O   3,C   2,C   1,C   0)   -179.9114         0.011302   
     46. D(H  10,C   2,C   1,H   8)    -60.4457         0.011302   
     47. D(H  10,C   2,C   1,H   7)   -179.3511         0.011302   
     48. D(H  10,C   2,C   1,C   0)     60.1646         0.011302   
     49. D(H  11,O   3,C   2,H  10)    -65.9553         0.023167   
     50. D(H  11,O   3,C   2,H   9)     54.8472         0.023167   
     51. D(H  11,O   3,C   2,C   1)    174.2219         0.023167   
    -----------------------------------------------------------------

Number of atoms                         .... 12
Number of degrees of freedom            .... 51

         *************************************************************
         *                GEOMETRY OPTIMIZATION CYCLE   1            *
         *************************************************************
---------------------------------
CARTESIAN COORDINATES (ANGSTROEM)
---------------------------------
  C      1.517780    1.319420    0.200300
  C      3.035080    1.313090    0.037960
  C      3.557390   -0.094090   -0.247890
  O      4.949690   -0.050940   -0.386760
  H      1.170700    2.352450    0.413240
  H      1.216780    0.662420    1.044090
  H      1.028090    0.964450   -0.731530
  H      3.501000    1.695140    0.972270
  H      3.313000    1.988430   -0.800390
  H      3.284520   -0.760210    0.602060
  H      3.100760   -0.473460   -1.189450
  H      5.247390   -0.993620   -0.474990

----------------------------
CARTESIAN COORDINATES (A.U.)
----------------------------
  NO LB      ZA    FRAG     MASS         X           Y           Z
   0 C     4.0000    0    12.011    2.868189    2.493342    0.378512
   1 C     4.0000    0    12.011    5.735470    2.481380    0.071734
   2 C     4.0000    0    12.011    6.722493   -0.177804   -0.468444
   3 O     6.0000    0    15.999    9.353559   -0.096263   -0.730870
   4 H     1.0000    0     1.008    2.212302    4.445486    0.780910
   5 H     1.0000    0     1.008    2.299381    1.251792    1.973044
   6 H     1.0000    0     1.008    1.942809    1.822546   -1.382391
   7 H     1.0000    0     1.008    6.615931    3.203350    1.837324
   8 H     1.0000    0     1.008    6.260663    3.757588   -1.512518
   9 H     1.0000    0     1.008    6.206843   -1.436589    1.137729
  10 H     1.0000    0     1.008    5.859587   -0.894710   -2.247735
  11 H     1.0000    0     1.008    9.916130   -1.877670   -0.897601

--------------------------------
INTERNAL COORDINATES (ANGSTROEM)
--------------------------------
 C      0   0   0     0.000000000000     0.00000000     0.00000000
 C      1   0   0     1.525973012376     0.00000000     0.00000000
 C      2   1   0     1.527963844795   111.32229525     0.00000000
 O      3   2   1     1.399873597651   109.27822014   180.08862725
 H      1   2   3     1.110386847409   109.57617783   179.62596887
 H      1   2   3     1.110959749091   110.34942011    60.02522112
 H      1   2   3     1.110903751862   110.34894250   299.26415193
 H      2   1   3     1.111745845506   109.01863506   239.35263206
 H      2   1   3     1.111824790378   109.04097766   120.84709317
 H      3   2   1     1.113817262301   108.92148239   299.96985204
 H      3   2   1     1.113089298933   109.38421251    60.16455848
 H      4   3   2     0.992499574458   106.13304466   174.22189364

---------------------------
INTERNAL COORDINATES (A.U.)
---------------------------
 C      0   0   0     0.000000000000     0.00000000     0.00000000
 C      1   0   0     2.883671081146     0.00000000     0.00000000
 C      2   1   0     2.887433209195   111.32229525     0.00000000
 O      3   2   1     2.645377721667   109.27822014   180.08862725
 H      1   2   3     2.098327044312   109.57617783   179.62596887
 H      1   2   3     2.099409671592   110.34942011    60.02522112
 H      1   2   3     2.099303852164   110.34894250   299.26415193
 H      2   1   3     2.100895178531   109.01863506   239.35263206
 H      2   1   3     2.101044362720   109.04097766   120.84709317
 H      3   2   1     2.104809588983   108.92148239   299.96985204
 H      3   2   1     2.103433937582   109.38421251    60.16455848
 H      4   3   2     1.875552383760   106.13304466   174.22189364

----------------------------
SLATER BASIS SET DIM=  24
----------------------------
  0 C     2 shells
 l=0 nsto= 1
    2       1.565085000000        1.000000000000
 l=1 nsto= 1
    2       1.842345000000        1.000000000000
  1 C     2 shells
 l=0 nsto= 1
    2       1.565085000000        1.000000000000
 l=1 nsto= 1
    2       1.842345000000        1.000000000000
  2 C     2 shells
 l=0 nsto= 1
    2       1.565085000000        1.000000000000
 l=1 nsto= 1
    2       1.842345000000        1.000000000000
  3 O     2 shells
 l=0 nsto= 1
    2       3.796544000000        1.000000000000
 l=1 nsto= 1
    2       2.389402000000        1.000000000000
  4 H     1 shells
 l=0 nsto= 1
    1       0.967807000000        1.000000000000
  5 H     1 shells
 l=0 nsto= 1
    1       0.967807000000        1.000000000000
  6 H     1 shells
 l=0 nsto= 1
    1       0.967807000000        1.000000000000
  7 H     1 shells
 l=0 nsto= 1
    1       0.967807000000        1.000000000000
  8 H     1 shells
 l=0 nsto= 1
    1       0.967807000000        1.000000000000
  9 H     1 shells
 l=0 nsto= 1
    1       0.967807000000        1.000000000000
 10 H     1 shells
 l=0 nsto= 1
    1       0.967807000000        1.000000000000
 11 H     1 shells
 l=0 nsto= 1
    1       0.967807000000        1.000000000000
------------------------------------------------------------------------------
                           ORCA NDO INTEGRAL CALCULATION
------------------------------------------------------------------------------

--------------
NDO PARAMETERS
--------------

Gamma integral treatment              ... MOPAC
Nuclear repulsuion treatment          ... AM1-style
Interaction factors:
s-s (sigma) =    1.0000
s-p (sigma) =    1.0000
s-d (sigma) =    1.0000
p-p (sigma) =    1.0000  p-p(pi) =    1.0000
p-d (sigma) =    1.0000  p-d(pi) =    1.0000
d-d (sigma) =    1.0000  d-d(pi) =    1.0000 d-d (delta) =    1.0000

--------------------------
Parameters for Element H :
--------------------------
 One-electron parameters (in eV)
  U(s)  =   -13.073321 Beta(s) =     5.626512 Neff(s) =     1.000000
 One-center electron repulsion parameters (in eV)
  G(s,s)=    14.794208
--------------------------
Parameters for Element C :
--------------------------
 One-electron parameters (in eV)
  U(s)  =   -47.270320 Beta(s) =    11.910015 Neff(s) =     2.000000
  U(p)  =   -36.266918 Beta(p) =     9.802755 Neff(p) =     2.000000 
 One-center electron repulsion parameters (in eV)
  G(s,s)=    11.200708
  G(s,p)=    10.265027 G(p,p)  =     9.627141
 Slater-Condon parameters (in eV)
 F2(p,p)=     7.3072 G1(s,p)=    6.8729
--------------------------
Parameters for Element O :
--------------------------
 One-electron parameters (in eV)
  U(s)  =   -86.993002 Beta(s) =    45.202651 Neff(s) =     2.000000
  U(p)  =   -71.879580 Beta(p) =    24.752515 Neff(p) =     4.000000 
 One-center electron repulsion parameters (in eV)
  G(s,s)=    15.755760
  G(s,p)=    10.621160 G(p,p)  =    12.822069
 Slater-Condon parameters (in eV)
 F2(p,p)=     5.1997 G1(s,p)=    1.7816

 Number of atoms                    ....   12
 Number of basis functions          ....   24

 Overlap integrals                  .... done
 One electron matrix                .... done
 Nuclear repulsion                  .... done
 Integral list                      .... done
 Electron-electron repulsion        .... done
-------------------------------------------------------------------------------
                                 ORCA SCF
-------------------------------------------------------------------------------

------------
SCF SETTINGS
------------
Hamiltonian:
 ZDO-Hamiltonian        Method          .... NDDO


General Settings:
 Integral files         IntName         .... propanol_orca
 Hartree-Fock type      HFTyp           .... RHF
 Total Charge           Charge          ....    0
 Multiplicity           Mult            ....    1
 Number of Electrons    NEL             ....   26
 Basis Dimension        Dim             ....   24
 Nuclear Repulsion      ENuc            ....     65.8099311549 Eh

Convergence Acceleration:
 DIIS                   CNVDIIS         .... on
   Start iteration      DIISMaxIt       ....    12
   Startup error        DIISStart       ....  0.200000
   # of expansion vecs  DIISMaxEq       ....     5
   Bias factor          DIISBfac        ....   1.050
   Max. coefficient     DIISMaxC        ....  10.000
 Newton-Raphson         CNVNR           .... off
 SOSCF                  CNVSOSCF        .... on
   Start iteration      SOSCFMaxIt      ....   150
   Startup grad/error   SOSCFStart      ....  0.003300
 Level Shifting         CNVShift        .... on
   Level shift para.    LevelShift      ....    0.2500
   Turn off err/grad.   ShiftErr        ....    0.0010
 Zerner damping         CNVZerner       .... off
 Static damping         CNVDamp         .... on
   Fraction old density DampFac         ....    0.7000
   Max. Damping (<1)    DampMax         ....    0.9800
   Min. Damping (>=0)   DampMin         ....    0.0000
   Turn off err/grad.   DampErr         ....    0.1000
 Fernandez-Rico         CNVRico         .... off

SCF Procedure:
 Maximum # iterations   MaxIter         ....   125
 SCF integral mode      SCFMode         .... Conventional
 Integral Buffer length BufferLength    .... 1048576
 Integral index format  IndFormat       ....     0
 Integral value format  ValFormat       ....     0
 Integral Storage       Thresh          ....  2.500e-11 Eh

Convergence Tolerance:
 Convergence Check Mode ConvCheckMode   .... Total+1el-Energy
 Convergence forced     ConvForced      .... 0
 Energy Change          TolE            ....  1.000e-08 Eh
 1-El. energy change                    ....  1.000e-05 Eh
 Orbital Gradient       TolG            ....  1.000e-05
 Orbital Rotation angle TolX            ....  1.000e-05
 DIIS Error             TolErr          ....  5.000e-07


Diagonalization of the overlap matrix:
Smallest eigenvalue                        ... 1.671e-01
Time for diagonalization                   ...    0.647 sec
Threshold for overlap eigenvalues          ... 1.000e-08
Number of eigenvalues below threshold      ... 0
Time for construction of square roots      ...    0.000 sec
Total time needed                          ...    0.648 sec

-------------------------------
INITIAL GUESS: EXTENDED HUECKEL
-------------------------------
EHT matrix was read from disk
EHT matrix was diagonalized
Initial density was built
                      ------------------
                      INITIAL GUESS DONE
                      ------------------

 InCore treatment chosen:
   Memory dedicated               ...    1024 MB
   Memory needed                  ...      0 MB
   Number of tiny    integrals    ...       0
   Number of small   integrals    ...       5
   Number of regular integrals    ...    1015

--------------
SCF ITERATIONS
--------------
ITER       Energy         Delta-E        Max-DP      RMS-DP      [F,P]     Damp
  0    -28.3060293905   0.000000000000 0.04575495  0.00446733  0.2039546 0.7000
  1    -28.3267973096  -0.020767919020 0.04178453  0.00454589  0.1617379 0.7000
                               ***Turning on DIIS***
  2    -28.3450842520  -0.018286942424 0.03431529  0.00392517  0.1238391 0.7000
  3    -28.3424325827   0.002651669256 0.11597301  0.01284376  0.0942361 0.0000
  4    -28.4000380394  -0.057605456670 0.03914374  0.00405948  0.0249576 0.0000
  5    -28.4019855965  -0.001947557151 0.02281181  0.00250568  0.0127473 0.0000
  6    -28.4058081851  -0.003822588547 0.01089481  0.00130034  0.0050520 0.0000
                      *** Initiating the SOSCF procedure ***
                           *** Shutting down DIIS ***
                      *** Re-Reading the Fockian *** 
                      *** Removing any level shift *** 
ITER      Energy       Delta-E        Grad      Rot      Max-DP    RMS-DP
  7    -28.40929777  -0.0034895824  0.001266  0.001266  0.003751  0.000486
  8    -28.41151517  -0.0022174022  0.000346  0.000621  0.001310  0.000145
  9    -28.41151913  -0.0000039573  0.000175  0.000686  0.001538  0.000168
 10    -28.41152071  -0.0000015858  0.000028  0.000036  0.000100  0.000013
 11    -28.41152074  -0.0000000264  0.000011  0.000027  0.000077  0.000009
                 **** Energy Check signals convergence ****
              ***Rediagonalizing the Fockian in SOSCF/NRSCF***

               *****************************************************
               *                     SUCCESS                       *
               *           SCF CONVERGED AFTER  12 CYCLES          *
               *****************************************************


----------------
TOTAL SCF ENERGY
----------------

Total Energy       :          -28.41152075 Eh            -773.11678 eV

Components:
Nuclear Repulsion  :           65.80993115 Eh            1790.77927 eV
Electronic Energy  :          -94.22145190 Eh           -2563.89605 eV
One Electron Energy:         -170.43083032 Eh           -4637.65867 eV
Two Electron Energy:           76.20937842 Eh            2073.76261 eV


---------------
SCF CONVERGENCE
---------------

  Last Energy change         ...   -6.4840e-09  Tolerance :   1.0000e-08
  Last MAX-Density change    ...    1.5698e-05  Tolerance :   1.0000e-07
  Last RMS-Density change    ...    1.4483e-06  Tolerance :   5.0000e-09
  Last Orbital Gradient      ...    2.2641e-06  Tolerance :   1.0000e-05
  Last Orbital Rotation      ...    5.4329e-06  Tolerance :   1.0000e-05

             **** THE GBW FILE WAS UPDATED (propanol_orca.gbw) ****
             **** DENSITY FILE WAS UPDATED (propanol_orca.scfp.tmp) ****
             **** ENERGY FILE WAS UPDATED (propanol_orca.en.tmp) ****
----------------
ORBITAL ENERGIES
----------------

  NO   OCC          E(Eh)            E(eV) 
   0   2.0000      -1.428286       -38.8656 
   1   2.0000      -1.241716       -33.7888 
   2   2.0000      -0.931051       -25.3352 
   3   2.0000      -0.773994       -21.0615 
   4   2.0000      -0.650048       -17.6887 
   5   2.0000      -0.615586       -16.7509 
   6   2.0000      -0.576511       -15.6877 
   7   2.0000      -0.523488       -14.2448 
   8   2.0000      -0.492134       -13.3916 
   9   2.0000      -0.491655       -13.3786 
  10   2.0000      -0.443025       -12.0553 
  11   2.0000      -0.439461       -11.9583 
  12   2.0000      -0.399079       -10.8595 
  13   0.0000       0.115554         3.1444 
  14   0.0000       0.134243         3.6529 
  15   0.0000       0.138165         3.7597 
  16   0.0000       0.143818         3.9135 
  17   0.0000       0.151427         4.1205 
  18   0.0000       0.153466         4.1760 
  19   0.0000       0.158715         4.3189 
  20   0.0000       0.167937         4.5698 
  21   0.0000       0.178935         4.8691 
  22   0.0000       0.182253         4.9593 
  23   0.0000       0.205301         5.5865 

                    ********************************
                    * MULLIKEN POPULATION ANALYSIS *
                    ********************************

-----------------------
MULLIKEN ATOMIC CHARGES
-----------------------
   0 C :   -0.302468
   1 C :   -0.269404
   2 C :   -0.061097
   3 O :   -0.320198
   4 H :    0.107989
   5 H :    0.103564
   6 H :    0.104101
   7 H :    0.131214
   8 H :    0.132152
   9 H :    0.080253
  10 H :    0.084287
  11 H :    0.209607
Sum of atomic charges:    0.0000000

--------------------------------
MULLIKEN REDUCED ORBITAL CHARGES
--------------------------------
  0 C s       :     1.507366  s :     1.507366
      pz      :     0.945593  p :     2.795103
      px      :     0.898630
      py      :     0.950880
  1 C s       :     1.464616  s :     1.464616
      pz      :     0.972804  p :     2.804788
      px      :     0.908745
      py      :     0.923238
  2 C s       :     1.413147  s :     1.413147
      pz      :     0.910711  p :     2.647950
      px      :     0.824023
      py      :     0.913216
  3 O s       :     1.849202  s :     1.849202
      pz      :     1.968673  p :     4.470996
      px      :     1.179952
      py      :     1.322371
  4 H s       :     0.892011  s :     0.892011
  5 H s       :     0.896436  s :     0.896436
  6 H s       :     0.895899  s :     0.895899
  7 H s       :     0.868786  s :     0.868786
  8 H s       :     0.867848  s :     0.867848
  9 H s       :     0.919747  s :     0.919747
 10 H s       :     0.915713  s :     0.915713
 11 H s       :     0.790393  s :     0.790393


                     *******************************
                     * LOEWDIN POPULATION ANALYSIS *
                     *******************************

----------------------
LOEWDIN ATOMIC CHARGES
----------------------
   0 C :   -0.108689
   1 C :   -0.121116
   2 C :    0.071094
   3 O :   -0.309703
   4 H :    0.041678
   5 H :    0.038844
   6 H :    0.039233
   7 H :    0.060067
   8 H :    0.060828
   9 H :    0.019917
  10 H :    0.022464
  11 H :    0.185382

-------------------------------
LOEWDIN REDUCED ORBITAL CHARGES
-------------------------------
  0 C s       :     1.145447  s :     1.145447
      pz      :     1.003365  p :     2.963242
      px      :     0.952189
      py      :     1.007688
  1 C s       :     1.165540  s :     1.165540
      pz      :     1.023233  p :     2.955576
      px      :     0.959848
      py      :     0.972495
  2 C s       :     1.152842  s :     1.152842
      pz      :     0.970003  p :     2.776064
      px      :     0.842269
      py      :     0.963792
  3 O s       :     1.817330  s :     1.817330
      pz      :     1.969120  p :     4.492373
      px      :     1.201007
      py      :     1.322246
  4 H s       :     0.958322  s :     0.958322
  5 H s       :     0.961156  s :     0.961156
  6 H s       :     0.960767  s :     0.960767
  7 H s       :     0.939933  s :     0.939933
  8 H s       :     0.939172  s :     0.939172
  9 H s       :     0.980083  s :     0.980083
 10 H s       :     0.977536  s :     0.977536
 11 H s       :     0.814618  s :     0.814618


                      *****************************
                      * MAYER POPULATION ANALYSIS *
                      *****************************

  NA   - Mulliken gross atomic population
  ZA   - Total nuclear charge
  QA   - Mulliken gross atomic charge
  VA   - Mayer's total valence
  BVA  - Mayer's bonded valence
  FA   - Mayer's free valence

  ATOM       NA         ZA         QA         VA         BVA        FA
  0 C      4.3025     4.0000    -0.3025     3.7240     3.7240    -0.0000
  1 C      4.2694     4.0000    -0.2694     3.7653     3.7653    -0.0000
  2 C      4.0611     4.0000    -0.0611     3.7751     3.7751     0.0000
  3 O      6.3202     6.0000    -0.3202     1.9835     1.9835     0.0000
  4 H      0.8920     1.0000     0.1080     0.9883     0.9883     0.0000
  5 H      0.8964     1.0000     0.1036     0.9893     0.9893     0.0000
  6 H      0.8959     1.0000     0.1041     0.9892     0.9892    -0.0000
  7 H      0.8688     1.0000     0.1312     0.9828     0.9828    -0.0000
  8 H      0.8678     1.0000     0.1322     0.9825     0.9825     0.0000
  9 H      0.9197     1.0000     0.0803     0.9936     0.9936     0.0000
 10 H      0.9157     1.0000     0.0843     0.9929     0.9929     0.0000
 11 H      0.7904     1.0000     0.2096     0.9561     0.9561     0.0000

  Mayer bond orders larger than 0.1
B(  0-C ,  1-C ) :   0.9202 B(  0-C ,  4-H ) :   0.9191 B(  0-C ,  5-H ) :   0.9196 
B(  0-C ,  6-H ) :   0.9195 B(  1-C ,  2-C ) :   0.9131 B(  1-C ,  7-H ) :   0.9184 
B(  1-C ,  8-H ) :   0.9182 B(  2-C ,  3-O ) :   0.9857 B(  2-C ,  9-H ) :   0.9201 
B(  2-C , 10-H ) :   0.9179 B(  3-O , 11-H ) :   0.9515 

-------
TIMINGS
-------

Total SCF time: 0 days 0 hours 0 min 0 sec 

Total time                  ....       0.811 sec
Sum of individual times     ....       0.085 sec  ( 10.5%)

Fock matrix formation       ....       0.075 sec  (  9.2%)
Diagonalization             ....       0.002 sec  (  0.3%)
Density matrix formation    ....       0.000 sec  (  0.0%)
Population analysis         ....       0.001 sec  (  0.1%)
Initial guess               ....       0.000 sec  (  0.0%)
Orbital Transformation      ....       0.000 sec  (  0.0%)
Orbital Orthonormalization  ....       0.000 sec  (  0.0%)
DIIS solution               ....       0.001 sec  (  0.1%)
SOSCF solution              ....       0.006 sec  (  0.8%)

-------------------------   --------------------
FINAL SINGLE POINT ENERGY       -28.411520745748
-------------------------   --------------------

------------------------------------------------------------------------------
                          SCF GRADIENT FOR NDO METHODS
------------------------------------------------------------------------------

The cartesian gradient:
   1   C   :   -0.006557796    0.000752226    0.000837624
   2   C   :    0.004661522   -0.001120506   -0.000445371
   3   C   :    0.010048761    0.002484927   -0.001861527
   4   O   :   -0.018176670    0.035557579    0.003942514
   5   H   :   -0.000183006    0.010113728    0.001783226
   6   H   :    0.000542235   -0.006163086    0.008393201
   7   H   :   -0.001410741   -0.003048865   -0.009866338
   8   H   :   -0.000324532   -0.001959638    0.005084071
   9   H   :   -0.001406132   -0.000055944   -0.005260355
  10   H   :    0.000566453    0.000504768    0.005458186
  11   H   :   -0.000610803    0.001921442   -0.004535957
  12   H   :    0.012850708   -0.038986629   -0.003529274

Norm of the cartesian gradient     ...    0.062635537
RMS gradient                       ...    0.010439256
MAX gradient                       ...    0.038986629
------------------------------------------------------------------------------
                         ORCA GEOMETRY RELAXATION STEP
------------------------------------------------------------------------------

Reading the OPT-File                    .... done
Getting information on internals        .... done
Copying old internal coords+grads       .... done
Making the new internal coordinates     .... (new redundants).... done
Validating the new internal coordinates .... (new redundants).... done
Calculating the B-matrix                .... done
Calculating the G,G- and P matrices     .... done
Transforming gradient to internals      .... done
Projecting the internal gradient        .... done
Number of atoms                         ....  12
Number of internal coordinates          ....  51
Current Energy                          ....   -28.411520746 Eh
Current gradient norm                   ....     0.062635537 Eh/bohr
Maximum allowed component of the step   ....  0.300
Current trust radius                    ....  0.300
Evaluating the initial hessian          ....  (Almloef) done
Projecting the Hessian                  .... done
Forming the augmented Hessian           .... done
Diagonalizing the augmented Hessian     .... done
Last element of RFO vector              ....  0.992814769
Lowest eigenvalues of augmented Hessian:
 -0.005568812  0.011302045  0.011459542  0.023168418  0.078042226
Length of the computed step             ....  0.120527353
The final length of the internal step   ....  0.120527353
Converting the step to cartesian space:
 Initial RMS(Int)=    0.0168772052
Transforming coordinates:
 Iter   0:  RMS(Cart)=    0.0228746188 RMS(Int)=    0.8795787661
 Iter   1:  RMS(Cart)=    0.0001762974 RMS(Int)=    0.0001164535
 Iter   2:  RMS(Cart)=    0.0000049769 RMS(Int)=    0.0000036656
 Iter   3:  RMS(Cart)=    0.0000001823 RMS(Int)=    0.0000001411
 Iter   4:  RMS(Cart)=    0.0000000078 RMS(Int)=    0.0000000061
done
Storing new coordinates                 .... done

                                .--------------------.
          ----------------------|Geometry convergence|-------------------------
          Item                value                   Tolerance       Converged
          ---------------------------------------------------------------------
          RMS gradient        0.0067614810            0.0001000000      NO
          MAX gradient        0.0411988020            0.0003000000      NO
          RMS step            0.0168772052            0.0020000000      NO
          MAX step            0.0882183668            0.0040000000      NO
          ........................................................
          Max(Bonds)      0.0467      Max(Angles)    1.15
          Max(Dihed)        0.73      Max(Improp)    0.00
          ---------------------------------------------------------------------

The optimization has not yet converged - more geometry cycles are needed


    ---------------------------------------------------------------------------
                         Redundant Internal Coordinates
                            (Angstroem and degrees)

        Definition                    Value    dE/dq     Step     New-Value
    ----------------------------------------------------------------------------
     1. B(C   1,C   0)                1.5260  0.007694 -0.0106    1.5154   
     2. B(C   2,C   1)                1.5280  0.000334 -0.0005    1.5275   
     3. B(O   3,C   2)                1.3999 -0.005445  0.0053    1.4052   
     4. B(H   4,C   0)                1.1104  0.009809 -0.0153    1.0951   
     5. B(H   5,C   0)                1.1110  0.009871 -0.0154    1.0955   
     6. B(H   6,C   0)                1.1109  0.009872 -0.0154    1.0955   
     7. B(H   7,C   1)                1.1117  0.003463 -0.0054    1.1063   
     8. B(H   8,C   1)                1.1118  0.003581 -0.0056    1.1062   
     9. B(H   9,C   2)                1.1138  0.003725 -0.0059    1.1079   
    10. B(H  10,C   2)                1.1131  0.003433 -0.0054    1.1077   
    11. B(H  11,O   3)                0.9925  0.041199 -0.0467    0.9458   
    12. A(H   4,C   0,H   5)          108.65  0.003149   -0.54    108.11   
    13. A(H   5,C   0,H   6)          109.19  0.003814   -0.79    108.40   
    14. A(H   4,C   0,H   6)          108.68  0.003163   -0.55    108.13   
    15. A(C   1,C   0,H   6)          110.35 -0.003346    0.60    110.95   
    16. A(C   1,C   0,H   5)          110.35 -0.003378    0.61    110.96   
    17. A(C   1,C   0,H   4)          109.58 -0.003182    0.63    110.21   
    18. A(H   7,C   1,H   8)          108.67  0.002955   -1.15    107.52   
    19. A(C   2,C   1,H   8)          109.44 -0.001660    0.33    109.77   
    20. A(C   0,C   1,H   8)          109.04 -0.001895    0.40    109.44   
    21. A(C   2,C   1,H   7)          109.30 -0.001824    0.40    109.70   
    22. A(C   0,C   1,H   7)          109.02 -0.001878    0.43    109.45   
    23. A(C   0,C   1,C   2)          111.32  0.004303   -0.44    110.88   
    24. A(O   3,C   2,H   9)          109.74 -0.001906    0.38    110.12   
    25. A(C   1,C   2,H   9)          108.92 -0.003600    0.73    109.65   
    26. A(H   9,C   2,H  10)          109.95  0.003665   -0.96    108.99   
    27. A(O   3,C   2,H  10)          109.55 -0.001663    0.20    109.75   
    28. A(C   1,C   2,H  10)          109.38 -0.003055    0.53    109.91   
    29. A(C   1,C   2,O   3)          109.28  0.006575   -0.88    108.39   
    30. A(C   2,O   3,H  11)          106.13  0.000939   -0.15    105.98   
    31. D(H   8,C   1,C   0,H   4)    -59.53 -0.000677    0.47    -59.05   
    32. D(C   2,C   1,C   0,H   5)     60.03  0.000120   -0.03     59.99   
    33. D(H   7,C   1,C   0,H   4)     58.98  0.000700   -0.43     58.55   
    34. D(H   8,C   1,C   0,H   5)   -179.13 -0.000469    0.37   -178.76   
    35. D(C   2,C   1,C   0,H   6)    -60.74 -0.000262    0.17    -60.57   
    36. D(H   7,C   1,C   0,H   6)    178.62  0.000527   -0.34    178.28   
    37. D(C   2,C   1,C   0,H   4)    179.63 -0.000088    0.08    179.70   
    38. D(H   8,C   1,C   0,H   6)     60.11 -0.000851    0.57     60.68   
    39. D(H   7,C   1,C   0,H   5)    -60.62  0.000909   -0.54    -61.16   
    40. D(H   9,C   2,C   1,H   7)     60.45 -0.001103    0.73     61.19   
    41. D(H   9,C   2,C   1,C   0)    -60.03 -0.000295    0.21    -59.82   
    42. D(O   3,C   2,C   1,H   8)     59.48  0.000972   -0.60     58.87   
    43. D(O   3,C   2,C   1,H   7)    -59.43 -0.000546    0.36    -59.07   
    44. D(H   9,C   2,C   1,H   8)    179.36  0.000415   -0.23    179.13   
    45. D(O   3,C   2,C   1,C   0)   -179.91  0.000262   -0.17   -180.08   
    46. D(H  10,C   2,C   1,H   8)    -60.45  0.000861   -0.64    -61.08   
    47. D(H  10,C   2,C   1,H   7)   -179.35 -0.000657    0.32   -179.03   
    48. D(H  10,C   2,C   1,C   0)     60.16  0.000152   -0.20     59.96   
    49. D(H  11,O   3,C   2,H  10)    -65.96 -0.001109    0.56    -65.40   
    50. D(H  11,O   3,C   2,H   9)     54.85  0.001170   -0.26     54.59   
    51. D(H  11,O   3,C   2,C   1)    174.22 -0.000375    0.33    174.55   
    ----------------------------------------------------------------------------

         *************************************************************
         *                GEOMETRY OPTIMIZATION CYCLE   2            *
         *************************************************************
---------------------------------
CARTESIAN COORDINATES (ANGSTROEM)
---------------------------------
  C      1.530425    1.317843    0.198247
  C      3.037383    1.309394    0.038831
  C      3.547003   -0.102274   -0.245313
  O      4.944202   -0.049610   -0.385073
  H      1.177869    2.333491    0.406625
  H      1.220518    0.672889    1.027837
  H      1.037966    0.966738   -0.715164
  H      3.507684    1.696851    0.962220
  H      3.323793    1.984478   -0.789388
  H      3.272683   -0.773186    0.592638
  H      3.091585   -0.487027   -1.178874
  H      5.231069   -0.946508   -0.473676

----------------------------
CARTESIAN COORDINATES (A.U.)
----------------------------
  NO LB      ZA    FRAG     MASS         X           Y           Z
   0 C     4.0000    0    12.011    2.892084    2.490362    0.374632
   1 C     4.0000    0    12.011    5.739821    2.474397    0.073381
   2 C     4.0000    0    12.011    6.702865   -0.193270   -0.463574
   3 O     6.0000    0    15.999    9.343187   -0.093749   -0.727682
   4 H     1.0000    0     1.008    2.225850    4.409659    0.768410
   5 H     1.0000    0     1.008    2.306444    1.271575    1.942331
   6 H     1.0000    0     1.008    1.961471    1.826871   -1.351464
   7 H     1.0000    0     1.008    6.628563    3.206584    1.818332
   8 H     1.0000    0     1.008    6.281059    3.750120   -1.491727
   9 H     1.0000    0     1.008    6.184475   -1.461110    1.119923
  10 H     1.0000    0     1.008    5.842249   -0.920347   -2.227749
  11 H     1.0000    0     1.008    9.885288   -1.788640   -0.895118

--------------------------------
INTERNAL COORDINATES (ANGSTROEM)
--------------------------------
 C      0   0   0     0.000000000000     0.00000000     0.00000000
 C      1   0   0     1.515389907872     0.00000000     0.00000000
 C      2   1   0     1.527500997536   110.88509424     0.00000000
 O      3   2   1     1.405158195727   108.39734488   179.92229893
 H      1   2   3     1.095106285135   110.20218927   179.70313435
 H      1   2   3     1.095549608290   110.95788892    59.99297439
 H      1   2   3     1.095495373868   110.94859437   299.43330859
 H      2   1   3     1.106323809461   109.44989594   238.84330353
 H      2   1   3     1.106217180388   109.44052187   121.24472877
 H      3   2   1     1.107941916300   109.65373987   300.17844120
 H      3   2   1     1.107689379626   109.91431309    59.96458247
 H      4   3   2     0.945816425565   105.98348756   174.54810468

---------------------------
INTERNAL COORDINATES (A.U.)
---------------------------
 C      0   0   0     0.000000000000     0.00000000     0.00000000
 C      1   0   0     2.863671911986     0.00000000     0.00000000
 C      2   1   0     2.886558554635   110.88509424     0.00000000
 O      3   2   1     2.655364164759   108.39734488   179.92229893
 H      1   2   3     2.069450966440   110.20218927   179.70313435
 H      1   2   3     2.070288725794   110.95788892    59.99297439
 H      1   2   3     2.070186237589   110.94859437   299.43330859
 H      2   1   3     2.090649015318   109.44989594   238.84330353
 H      2   1   3     2.090447515572   109.44052187   121.24472877
 H      3   2   1     2.093706794100   109.65373987   300.17844120
 H      3   2   1     2.093229568946   109.91431309    59.96458247
 H      4   3   2     1.787334017282   105.98348756   174.54810468

------------------------------------------------------------------------------
                           ORCA NDO INTEGRAL CALCULATION
------------------------------------------------------------------------------

--------------
NDO PARAMETERS
--------------

Gamma integral treatment              ... MOPAC
Nuclear repulsuion treatment          ... AM1-style
Interaction factors:
s-s (sigma) =    1.0000
s-p (sigma) =    1.0000
s-d (sigma) =    1.0000
p-p (sigma) =    1.0000  p-p(pi) =    1.0000
p-d (sigma) =    1.0000  p-d(pi) =    1.0000
d-d (sigma) =    1.0000  d-d(pi) =    1.0000 d-d (delta) =    1.0000

--------------------------
Parameters for Element H :
--------------------------
 One-electron parameters (in eV)
  U(s)  =   -13.073321 Beta(s) =     5.626512 Neff(s) =     1.000000
 One-center electron repulsion parameters (in eV)
  G(s,s)=    14.794208
--------------------------
Parameters for Element C :
--------------------------
 One-electron parameters (in eV)
  U(s)  =   -47.270320 Beta(s) =    11.910015 Neff(s) =     2.000000
  U(p)  =   -36.266918 Beta(p) =     9.802755 Neff(p) =     2.000000 
 One-center electron repulsion parameters (in eV)
  G(s,s)=    11.200708
  G(s,p)=    10.265027 G(p,p)  =     9.627141
 Slater-Condon parameters (in eV)
 F2(p,p)=     7.3072 G1(s,p)=    6.8729
--------------------------
Parameters for Element O :
--------------------------
 One-electron parameters (in eV)
  U(s)  =   -86.993002 Beta(s) =    45.202651 Neff(s) =     2.000000
  U(p)  =   -71.879580 Beta(p) =    24.752515 Neff(p) =     4.000000 
 One-center electron repulsion parameters (in eV)
  G(s,s)=    15.755760
  G(s,p)=    10.621160 G(p,p)  =    12.822069
 Slater-Condon parameters (in eV)
 F2(p,p)=     5.1997 G1(s,p)=    1.7816

 Number of atoms                    ....   12
 Number of basis functions          ....   24

 Overlap integrals                  .... done
 One electron matrix                .... done
 Nuclear repulsion                  .... done
 Integral list                      .... done
 Electron-electron repulsion        .... done

Diagonalization of the overlap matrix:
Smallest eigenvalue                        ... 1.631e-01
Time for diagonalization                   ...    0.000 sec
Threshold for overlap eigenvalues          ... 1.000e-08
Number of eigenvalues below threshold      ... 0
Time for construction of square roots      ...    0.000 sec
Total time needed                          ...    0.000 sec


 InCore treatment chosen:
   Memory dedicated               ...    1024 MB
   Memory needed                  ...      0 MB
   Number of tiny    integrals    ...       0
   Number of small   integrals    ...       4
   Number of regular integrals    ...    1016

--------------
SCF ITERATIONS
--------------
ITER       Energy         Delta-E        Max-DP      RMS-DP      [F,P]     Damp
  0    -28.4140096077   0.000000000000 0.00334954  0.00025717  0.0201801 0.7000
                      *** Initiating the SOSCF procedure ***
                      *** Re-Reading the Fockian *** 
                      *** Removing any level shift *** 
ITER      Energy       Delta-E        Grad      Rot      Max-DP    RMS-DP
  1    -28.41411094  -0.0001013367  0.001133  0.001133  0.010490  0.000829
  2    -28.41443952  -0.0003285711  0.001208  0.001169  0.003602  0.000346
  3    -28.41447746  -0.0000379478  0.000421  0.000926  0.002240  0.000227
  4    -28.41448420  -0.0000067325  0.000084  0.000123  0.000282  0.000030
  5    -28.41448439  -0.0000001896  0.000036  0.000067  0.000220  0.000018
  6    -28.41448442  -0.0000000395  0.000006  0.000016  0.000052  0.000003
  7    -28.41448443  -0.0000000022  0.000003  0.000016  0.000045  0.000003
                 **** Energy Check signals convergence ****
              ***Rediagonalizing the Fockian in SOSCF/NRSCF***

               *****************************************************
               *                     SUCCESS                       *
               *           SCF CONVERGED AFTER   8 CYCLES          *
               *****************************************************

Total Energy       :          -28.41448443 Eh            -773.19743 eV
  Last Energy change         ...   -8.3615e-10  Tolerance :   1.0000e-08
  Last MAX-Density change    ...    2.4250e-06  Tolerance :   1.0000e-07
             **** THE GBW FILE WAS UPDATED (propanol_orca.gbw) ****
             **** DENSITY FILE WAS UPDATED (propanol_orca.scfp.tmp) ****
             **** ENERGY FILE WAS UPDATED (propanol_orca.en.tmp) ****
Total SCF time: 0 days 0 hours 0 min 0 sec 

-------------------------   --------------------
FINAL SINGLE POINT ENERGY       -28.414484427882
-------------------------   --------------------

------------------------------------------------------------------------------
                          SCF GRADIENT FOR NDO METHODS
------------------------------------------------------------------------------

The cartesian gradient:
   1   C   :   -0.006458558    0.000058878    0.000678277
   2   C   :    0.002039171    0.001475316    0.000111311
   3   C   :    0.004024539   -0.001559675   -0.001155578
   4   O   :   -0.002127428   -0.002086524   -0.000025081
   5   H   :    0.001985175   -0.000510148   -0.000264082
   6   H   :    0.002070390    0.000547657   -0.000382409
   7   H   :    0.002126033    0.000478259    0.000123131
   8   H   :   -0.001502121   -0.001979167    0.001116741
   9   H   :   -0.001800487   -0.001535013   -0.001297319
  10   H   :    0.000667980    0.001652530    0.001767226
  11   H   :    0.000374870    0.002002578   -0.001050673
  12   H   :   -0.001399563    0.001455308    0.000378457

Norm of the cartesian gradient     ...    0.011027813
RMS gradient                       ...    0.001837969
MAX gradient                       ...    0.006458558
------------------------------------------------------------------------------
                         ORCA GEOMETRY RELAXATION STEP
------------------------------------------------------------------------------

Reading the OPT-File                    .... done
Getting information on internals        .... done
Copying old internal coords+grads       .... done
Making the new internal coordinates     .... (new redundants).... done
Validating the new internal coordinates .... (new redundants).... done
Calculating the B-matrix                .... done
Calculating the G,G- and P matrices     .... done
Transforming gradient to internals      .... done
Projecting the internal gradient        .... done
Number of atoms                         ....  12
Number of internal coordinates          ....  51
Current Energy                          ....   -28.414484428 Eh
Current gradient norm                   ....     0.011027813 Eh/bohr
Maximum allowed component of the step   ....  0.300
Current trust radius                    ....  0.300
Updating the Hessian (BFGS)             .... done
Forming the augmented Hessian           .... done
Diagonalizing the augmented Hessian     .... done
Last element of RFO vector              ....  0.999101950
Lowest eigenvalues of augmented Hessian:
 -0.000303351  0.011301993  0.011459428  0.023162333  0.078039059
Length of the computed step             ....  0.042408986
The final length of the internal step   ....  0.042408986
Converting the step to cartesian space:
 Initial RMS(Int)=    0.0059384459
Transforming coordinates:
 Iter   0:  RMS(Cart)=    0.0081885216 RMS(Int)=    0.0059445946
 Iter   1:  RMS(Cart)=    0.0000354396 RMS(Int)=    0.0000260463
 Iter   2:  RMS(Cart)=    0.0000002180 RMS(Int)=    0.0000001904
 Iter   3:  RMS(Cart)=    0.0000000021 RMS(Int)=    0.0000000017
done
Storing new coordinates                 .... done

                                .--------------------.
          ----------------------|Geometry convergence|-------------------------
          Item                value                   Tolerance       Converged
          ---------------------------------------------------------------------
          Energy change      -0.0029636821            0.0000050000      NO
          RMS gradient        0.0012462395            0.0001000000      NO
          MAX gradient        0.0035669233            0.0003000000      NO
          RMS step            0.0059384459            0.0020000000      NO
          MAX step            0.0154340076            0.0040000000      NO
          ........................................................
          Max(Bonds)      0.0039      Max(Angles)    0.88
          Max(Dihed)        0.62      Max(Improp)    0.00
          ---------------------------------------------------------------------

The optimization has not yet converged - more geometry cycles are needed


    ---------------------------------------------------------------------------
                         Redundant Internal Coordinates
                            (Angstroem and degrees)

        Definition                    Value    dE/dq     Step     New-Value
    ----------------------------------------------------------------------------
     1. B(C   1,C   0)                1.5154  0.000294 -0.0010    1.5144   
     2. B(C   2,C   1)                1.5275 -0.000822  0.0012    1.5287   
     3. B(O   3,C   2)                1.4052 -0.003567  0.0039    1.4090   
     4. B(H   4,C   0)                1.0951 -0.001162  0.0011    1.0962   
     5. B(H   5,C   0)                1.0955 -0.001199  0.0012    1.0967   
     6. B(H   6,C   0)                1.0955 -0.001211  0.0012    1.0967   
     7. B(H   7,C   1)                1.1063 -0.000399  0.0004    1.1067   
     8. B(H   8,C   1)                1.1062 -0.000432  0.0004    1.1066   
     9. B(H   9,C   2)                1.1079  0.000171 -0.0006    1.1074   
    10. B(H  10,C   2)                1.1077  0.000036 -0.0003    1.1073   
    11. B(H  11,O   3)                0.9458 -0.001839 -0.0003    0.9455   
    12. A(H   4,C   0,H   5)          108.11  0.001698   -0.32    107.79   
    13. A(H   5,C   0,H   6)          108.39  0.002047   -0.50    107.89   
    14. A(H   4,C   0,H   6)          108.13  0.001710   -0.33    107.80   
    15. A(C   1,C   0,H   6)          110.95 -0.001727    0.36    111.31   
    16. A(C   1,C   0,H   5)          110.96 -0.001736    0.36    111.32   
    17. A(C   1,C   0,H   4)          110.20 -0.001761    0.41    110.61   
    18. A(H   7,C   1,H   8)          107.52  0.001718   -0.88    106.64   
    19. A(C   2,C   1,H   8)          109.78 -0.000613    0.15    109.92   
    20. A(C   0,C   1,H   8)          109.44 -0.001058    0.31    109.75   
    21. A(C   2,C   1,H   7)          109.70 -0.000709    0.19    109.89   
    22. A(C   0,C   1,H   7)          109.45 -0.001034    0.32    109.77   
    23. A(C   0,C   1,C   2)          110.89  0.001686   -0.10    110.78   
    24. A(O   3,C   2,H   9)          110.13 -0.000671    0.17    110.30   
    25. A(C   1,C   2,H   9)          109.65 -0.002088    0.50    110.15   
    26. A(H   9,C   2,H  10)          108.98  0.002203   -0.71    108.27   
    27. A(O   3,C   2,H  10)          109.76 -0.000617    0.09    109.84   
    28. A(C   1,C   2,H  10)          109.91 -0.001734    0.37    110.28   
    29. A(C   1,C   2,O   3)          108.40  0.002869   -0.41    107.99   
    30. A(C   2,O   3,H  11)          105.98 -0.001616    0.26    106.24   
    31. D(H   8,C   1,C   0,H   4)    -59.05 -0.000427    0.39    -58.66   
    32. D(C   2,C   1,C   0,H   5)     59.99  0.000091   -0.01     59.98   
    33. D(H   7,C   1,C   0,H   4)     58.55  0.000432   -0.32     58.23   
    34. D(H   8,C   1,C   0,H   5)   -178.76 -0.000286    0.31   -178.46   
    35. D(C   2,C   1,C   0,H   6)    -60.57 -0.000172    0.14    -60.43   
    36. D(H   7,C   1,C   0,H   6)    178.28  0.000310   -0.24    178.03   
    37. D(C   2,C   1,C   0,H   4)    179.70 -0.000050    0.07    179.77   
    38. D(H   8,C   1,C   0,H   6)     60.68 -0.000549    0.46     61.14   
    39. D(H   7,C   1,C   0,H   5)    -61.16  0.000573   -0.40    -61.56   
    40. D(H   9,C   2,C   1,H   7)     61.19 -0.000870    0.62     61.81   
    41. D(H   9,C   2,C   1,C   0)    -59.82 -0.000199    0.16    -59.66   
    42. D(O   3,C   2,C   1,H   8)     58.87  0.000747   -0.52     58.35   
    43. D(O   3,C   2,C   1,H   7)    -59.07 -0.000558    0.35    -58.72   
    44. D(H   9,C   2,C   1,H   8)    179.13  0.000435   -0.26    178.88   
    45. D(O   3,C   2,C   1,C   0)    179.92  0.000112   -0.11    179.81   
    46. D(H  10,C   2,C   1,H   8)    -61.08  0.000775   -0.60    -61.69   
    47. D(H  10,C   2,C   1,H   7)   -179.03 -0.000530    0.27   -178.76   
    48. D(H  10,C   2,C   1,C   0)     59.96  0.000141   -0.19     59.78   
    49. D(H  11,O   3,C   2,H  10)    -65.39 -0.000961    0.53    -64.86   
    50. D(H  11,O   3,C   2,H   9)     54.59  0.000952   -0.19     54.40   
    51. D(H  11,O   3,C   2,C   1)    174.55 -0.000230    0.28    174.83   
    ----------------------------------------------------------------------------

         *************************************************************
         *                GEOMETRY OPTIMIZATION CYCLE   3            *
         *************************************************************
---------------------------------
CARTESIAN COORDINATES (ANGSTROEM)
---------------------------------
  C      1.532087    1.319540    0.198002
  C      3.038172    1.309076    0.039705
  C      3.543940   -0.105340   -0.243919
  O      4.944725   -0.046731   -0.384401
  H      1.173049    2.334333    0.405237
  H      1.213909    0.675878    1.026989
  H      1.033316    0.967028   -0.712847
  H      3.513862    1.701897    0.958501
  H      3.332240    1.986960   -0.784085
  H      3.269213   -0.782716    0.587899
  H      3.088826   -0.496311   -1.174637
  H      5.238842   -0.940534   -0.477532

----------------------------
CARTESIAN COORDINATES (A.U.)
----------------------------
  NO LB      ZA    FRAG     MASS         X           Y           Z
   0 C     4.0000    0    12.011    2.895225    2.493569    0.374169
   1 C     4.0000    0    12.011    5.741313    2.473795    0.075032
   2 C     4.0000    0    12.011    6.697076   -0.199064   -0.460940
   3 O     6.0000    0    15.999    9.344175   -0.088310   -0.726413
   4 H     1.0000    0     1.008    2.216741    4.411250    0.765786
   5 H     1.0000    0     1.008    2.293955    1.277225    1.940728
   6 H     1.0000    0     1.008    1.952684    1.827419   -1.347086
   7 H     1.0000    0     1.008    6.640237    3.216118    1.811304
   8 H     1.0000    0     1.008    6.297020    3.754810   -1.481707
   9 H     1.0000    0     1.008    6.177917   -1.479118    1.110967
  10 H     1.0000    0     1.008    5.837036   -0.937892   -2.219743
  11 H     1.0000    0     1.008    9.899976   -1.777352   -0.902405

--------------------------------
INTERNAL COORDINATES (ANGSTROEM)
--------------------------------
 C      0   0   0     0.000000000000     0.00000000     0.00000000
 C      1   0   0     1.514416768311     0.00000000     0.00000000
 C      2   1   0     1.528664946927   110.78254893     0.00000000
 O      3   2   1     1.409031028430   107.99486128   179.81461606
 H      1   2   3     1.096202738455   110.60260494   179.77288880
 H      1   2   3     1.096703214568   111.31417239    59.97827978
 H      1   2   3     1.096669175896   111.30098192   299.57577526
 H      2   1   3     1.106695164718   109.76923030   238.45818370
 H      2   1   3     1.106631784414   109.74584382   121.56464009
 H      3   2   1     1.107354087958   110.15338728   300.33390427
 H      3   2   1     1.107349572581   110.28221327    59.77690367
 H      4   3   2     0.945548076494   106.24442556   174.82784236

---------------------------
INTERNAL COORDINATES (A.U.)
---------------------------
 C      0   0   0     0.000000000000     0.00000000     0.00000000
 C      1   0   0     2.861832944726     0.00000000     0.00000000
 C      2   1   0     2.888758100218   110.78254893     0.00000000
 O      3   2   1     2.662682757930   107.99486128   179.81461606
 H      1   2   3     2.071522962934   110.60260494   179.77288880
 H      1   2   3     2.072468725725   111.31417239    59.97827978
 H      1   2   3     2.072404401956   111.30098192   299.57577526
 H      2   1   3     2.091350775052   109.76923030   238.45818370
 H      2   1   3     2.091231003635   109.74584382   121.56464009
 H      3   2   1     2.092595959519   110.15338728   300.33390427
 H      3   2   1     2.092587426692   110.28221327    59.77690367
 H      4   3   2     1.786826911030   106.24442556   174.82784236

------------------------------------------------------------------------------
                           ORCA NDO INTEGRAL CALCULATION
------------------------------------------------------------------------------

--------------
NDO PARAMETERS
--------------

Gamma integral treatment              ... MOPAC
Nuclear repulsuion treatment          ... AM1-style
Interaction factors:
s-s (sigma) =    1.0000
s-p (sigma) =    1.0000
s-d (sigma) =    1.0000
p-p (sigma) =    1.0000  p-p(pi) =    1.0000
p-d (sigma) =    1.0000  p-d(pi) =    1.0000
d-d (sigma) =    1.0000  d-d(pi) =    1.0000 d-d (delta) =    1.0000

--------------------------
Parameters for Element H :
--------------------------
 One-electron parameters (in eV)
  U(s)  =   -13.073321 Beta(s) =     5.626512 Neff(s) =     1.000000
 One-center electron repulsion parameters (in eV)
  G(s,s)=    14.794208
--------------------------
Parameters for Element C :
--------------------------
 One-electron parameters (in eV)
  U(s)  =   -47.270320 Beta(s) =    11.910015 Neff(s) =     2.000000
  U(p)  =   -36.266918 Beta(p) =     9.802755 Neff(p) =     2.000000 
 One-center electron repulsion parameters (in eV)
  G(s,s)=    11.200708
  G(s,p)=    10.265027 G(p,p)  =     9.627141
 Slater-Condon parameters (in eV)
 F2(p,p)=     7.3072 G1(s,p)=    6.8729
--------------------------
Parameters for Element O :
--------------------------
 One-electron parameters (in eV)
  U(s)  =   -86.993002 Beta(s) =    45.202651 Neff(s) =     2.000000
  U(p)  =   -71.879580 Beta(p) =    24.752515 Neff(p) =     4.000000 
 One-center electron repulsion parameters (in eV)
  G(s,s)=    15.755760
  G(s,p)=    10.621160 G(p,p)  =    12.822069
 Slater-Condon parameters (in eV)
 F2(p,p)=     5.1997 G1(s,p)=    1.7816

 Number of atoms                    ....   12
 Number of basis functions          ....   24

 Overlap integrals                  .... done
 One electron matrix                .... done
 Nuclear repulsion                  .... done
 Integral list                      .... done
 Electron-electron repulsion        .... done

Diagonalization of the overlap matrix:
Smallest eigenvalue                        ... 1.636e-01
Time for diagonalization                   ...    0.000 sec
Threshold for overlap eigenvalues          ... 1.000e-08
Number of eigenvalues below threshold      ... 0
Time for construction of square roots      ...    0.000 sec
Total time needed                          ...    0.000 sec


 InCore treatment chosen:
   Memory dedicated               ...    1024 MB
   Memory needed                  ...      0 MB
   Number of tiny    integrals    ...       0
   Number of small   integrals    ...       4
   Number of regular integrals    ...    1016

--------------
SCF ITERATIONS
--------------
ITER       Energy         Delta-E        Max-DP      RMS-DP      [F,P]     Damp
                      *** Initiating the SOSCF procedure ***
                      *** Re-Reading the Fockian *** 
                      *** Removing any level shift *** 
ITER      Energy       Delta-E        Grad      Rot      Max-DP    RMS-DP
  0    -28.41466434 -28.4146643424  0.001116  0.001116  0.002467  0.000267
  1    -28.41469799  -0.0000336474  0.000578  0.000735  0.001912  0.000198
  2    -28.41471010  -0.0000121151  0.000258  0.000606  0.001582  0.000161
  3    -28.41471317  -0.0000030638  0.000039  0.000074  0.000226  0.000016
  4    -28.41471323  -0.0000000619  0.000019  0.000068  0.000218  0.000015
  5    -28.41471325  -0.0000000211  0.000004  0.000012  0.000031  0.000002
                 **** Energy Check signals convergence ****
              ***Rediagonalizing the Fockian in SOSCF/NRSCF***

               *****************************************************
               *                     SUCCESS                       *
               *           SCF CONVERGED AFTER   6 CYCLES          *
               *****************************************************

Total Energy       :          -28.41471325 Eh            -773.20366 eV
  Last Energy change         ...   -9.4175e-10  Tolerance :   1.0000e-08
  Last MAX-Density change    ...    1.7687e-05  Tolerance :   1.0000e-07
             **** THE GBW FILE WAS UPDATED (propanol_orca.gbw) ****
             **** DENSITY FILE WAS UPDATED (propanol_orca.scfp.tmp) ****
             **** ENERGY FILE WAS UPDATED (propanol_orca.en.tmp) ****
Total SCF time: 0 days 0 hours 0 min 0 sec 

-------------------------   --------------------
FINAL SINGLE POINT ENERGY       -28.414713252641
-------------------------   --------------------

------------------------------------------------------------------------------
                          SCF GRADIENT FOR NDO METHODS
------------------------------------------------------------------------------

The cartesian gradient:
   1   C   :   -0.004061884   -0.000037546    0.000406141
   2   C   :    0.001567064    0.001805253    0.000179357
   3   C   :    0.000726129   -0.002098878   -0.000574412
   4   O   :    0.000554477   -0.001988865   -0.000345841
   5   H   :    0.001109779   -0.000218395   -0.000131010
   6   H   :    0.001114762    0.000303746   -0.000223239
   7   H   :    0.001154688    0.000265192    0.000084410
   8   H   :   -0.000926373   -0.001137737    0.000489328
   9   H   :   -0.001083009   -0.000952707   -0.000596160
  10   H   :    0.000432834    0.001113288    0.000763287
  11   H   :    0.000328189    0.001277038   -0.000396428
  12   H   :   -0.000916657    0.001669614    0.000344567

Norm of the cartesian gradient     ...    0.006973441
RMS gradient                       ...    0.001162240
MAX gradient                       ...    0.004061884
------------------------------------------------------------------------------
                         ORCA GEOMETRY RELAXATION STEP
------------------------------------------------------------------------------

Reading the OPT-File                    .... done
Getting information on internals        .... done
Copying old internal coords+grads       .... done
Making the new internal coordinates     .... (new redundants).... done
Validating the new internal coordinates .... (new redundants).... done
Calculating the B-matrix                .... done
Calculating the G,G- and P matrices     .... done
Transforming gradient to internals      .... done
Projecting the internal gradient        .... done
Number of atoms                         ....  12
Number of internal coordinates          ....  51
Current Energy                          ....   -28.414713253 Eh
Current gradient norm                   ....     0.006973441 Eh/bohr
Maximum allowed component of the step   ....  0.300
Current trust radius                    ....  0.300
Updating the Hessian (BFGS)             .... done
Forming the augmented Hessian           .... done
Diagonalizing the augmented Hessian     .... done
Last element of RFO vector              ....  0.998613098
Lowest eigenvalues of augmented Hessian:
 -0.000199702  0.011299446  0.011454033  0.022904177  0.059143498
Length of the computed step             ....  0.052721767
The final length of the internal step   ....  0.052721767
Converting the step to cartesian space:
 Initial RMS(Int)=    0.0073825240
Transforming coordinates:
 Iter   0:  RMS(Cart)=    0.0091142651 RMS(Int)=    0.0073886101
 Iter   1:  RMS(Cart)=    0.0000475723 RMS(Int)=    0.0000382077
 Iter   2:  RMS(Cart)=    0.0000003868 RMS(Int)=    0.0000003580
 Iter   3:  RMS(Cart)=    0.0000000041 RMS(Int)=    0.0000000036
done
Storing new coordinates                 .... done

                                .--------------------.
          ----------------------|Geometry convergence|-------------------------
          Item                value                   Tolerance       Converged
          ---------------------------------------------------------------------
          Energy change      -0.0002288248            0.0000050000      NO
          RMS gradient        0.0006755826            0.0001000000      NO
          MAX gradient        0.0018964600            0.0003000000      NO
          RMS step            0.0073825240            0.0020000000      NO
          MAX step            0.0189168056            0.0040000000      NO
          ........................................................
          Max(Bonds)      0.0027      Max(Angles)    1.08
          Max(Dihed)        0.85      Max(Improp)    0.00
          ---------------------------------------------------------------------

The optimization has not yet converged - more geometry cycles are needed


    ---------------------------------------------------------------------------
                         Redundant Internal Coordinates
                            (Angstroem and degrees)

        Definition                    Value    dE/dq     Step     New-Value
    ----------------------------------------------------------------------------
     1. B(C   1,C   0)                1.5144  0.000694 -0.0027    1.5117   
     2. B(C   2,C   1)                1.5287  0.000438 -0.0011    1.5275   
     3. B(O   3,C   2)                1.4090 -0.000374  0.0016    1.4106   
     4. B(H   4,C   0)                1.0962 -0.000590  0.0012    1.0974   
     5. B(H   5,C   0)                1.0967 -0.000672  0.0015    1.0982   
     6. B(H   6,C   0)                1.0967 -0.000680  0.0015    1.0982   
     7. B(H   7,C   1)                1.1067 -0.000396  0.0010    1.1077   
     8. B(H   8,C   1)                1.1066 -0.000428  0.0011    1.1078   
     9. B(H   9,C   2)                1.1074 -0.000214  0.0003    1.1076   
    10. B(H  10,C   2)                1.1073 -0.000253  0.0005    1.1078   
    11. B(H  11,O   3)                0.9455 -0.001896  0.0018    0.9474   
    12. A(H   4,C   0,H   5)          107.78  0.000939   -0.39    107.39   
    13. A(H   5,C   0,H   6)          107.89  0.001090   -0.60    107.29   
    14. A(H   4,C   0,H   6)          107.80  0.000950   -0.40    107.39   
    15. A(C   1,C   0,H   6)          111.30 -0.000903    0.41    111.71   
    16. A(C   1,C   0,H   5)          111.31 -0.000896    0.41    111.73   
    17. A(C   1,C   0,H   4)          110.60 -0.001020    0.51    111.11   
    18. A(H   7,C   1,H   8)          106.64  0.000964   -1.08    105.56   
    19. A(C   2,C   1,H   8)          109.92 -0.000340    0.18    110.10   
    20. A(C   0,C   1,H   8)          109.75 -0.000623    0.40    110.14   
    21. A(C   2,C   1,H   7)          109.89 -0.000392    0.22    110.12   
    22. A(C   0,C   1,H   7)          109.77 -0.000599    0.40    110.17   
    23. A(C   0,C   1,C   2)          110.78  0.000976   -0.14    110.64   
    24. A(O   3,C   2,H   9)          110.30 -0.000324    0.19    110.49   
    25. A(C   1,C   2,H   9)          110.15 -0.001152    0.61    110.76   
    26. A(H   9,C   2,H  10)          108.27  0.001255   -0.91    107.35   
    27. A(O   3,C   2,H  10)          109.84 -0.000321    0.12    109.96   
    28. A(C   1,C   2,H  10)          110.28 -0.000979    0.47    110.75   
    29. A(C   1,C   2,O   3)          107.99  0.001491   -0.45    107.54   
    30. A(C   2,O   3,H  11)          106.24 -0.000645    0.24    106.48   
    31. D(H   8,C   1,C   0,H   4)    -58.66 -0.000229    0.49    -58.17   
    32. D(C   2,C   1,C   0,H   5)     59.98  0.000059   -0.01     59.97   
    33. D(H   7,C   1,C   0,H   4)     58.23  0.000225   -0.36     57.87   
    34. D(H   8,C   1,C   0,H   5)   -178.46 -0.000144    0.38   -178.07   
    35. D(C   2,C   1,C   0,H   6)    -60.42 -0.000102    0.19    -60.23   
    36. D(H   7,C   1,C   0,H   6)    178.03  0.000149   -0.26    177.77   
    37. D(C   2,C   1,C   0,H   4)    179.77 -0.000026    0.10    179.87   
    38. D(H   8,C   1,C   0,H   6)     61.14 -0.000304    0.59     61.73   
    39. D(H   7,C   1,C   0,H   5)    -61.56  0.000310   -0.47    -62.03   
    40. D(H   9,C   2,C   1,H   7)     61.80 -0.000489    0.75     62.56   
    41. D(H   9,C   2,C   1,C   0)    -59.67 -0.000116    0.19    -59.47   
    42. D(O   3,C   2,C   1,H   8)     58.35  0.000409   -0.64     57.71   
    43. D(O   3,C   2,C   1,H   7)    -58.72 -0.000331    0.44    -58.27   
    44. D(H   9,C   2,C   1,H   8)    178.87  0.000251   -0.33    178.54   
    45. D(O   3,C   2,C   1,C   0)    179.81  0.000042   -0.12    179.70   
    46. D(H  10,C   2,C   1,H   8)    -61.68  0.000461   -0.78    -62.47   
    47. D(H  10,C   2,C   1,H   7)   -178.75 -0.000279    0.30   -178.45   
    48. D(H  10,C   2,C   1,C   0)     59.78  0.000093   -0.26     59.52   
    49. D(H  11,O   3,C   2,H  10)    -64.86 -0.000615    0.85    -64.01   
    50. D(H  11,O   3,C   2,H   9)     54.40  0.000531   -0.09     54.31   
    51. D(H  11,O   3,C   2,C   1)    174.83 -0.000144    0.48    175.31   
    ----------------------------------------------------------------------------

         *************************************************************
         *                GEOMETRY OPTIMIZATION CYCLE   4            *
         *************************************************************
---------------------------------
CARTESIAN COORDINATES (ANGSTROEM)
---------------------------------
  C      1.535800    1.320429    0.197241
  C      3.039378    1.308438    0.040782
  C      3.540127   -0.106792   -0.241675
  O      4.942162   -0.041568   -0.382386
  H      1.167892    2.333690    0.402779
  H      1.208203    0.678119    1.025554
  H      1.030067    0.965552   -0.710654
  H      3.521668    1.707910    0.954494
  H      3.343144    1.990170   -0.777814
  H      3.264680   -0.792674    0.583299
  H      3.085089   -0.506318   -1.169360
  H      5.243971   -0.933875   -0.483349

----------------------------
CARTESIAN COORDINATES (A.U.)
----------------------------
  NO LB      ZA    FRAG     MASS         X           Y           Z
   0 C     4.0000    0    12.011    2.902242    2.495249    0.372731
   1 C     4.0000    0    12.011    5.743592    2.472589    0.077067
   2 C     4.0000    0    12.011    6.689870   -0.201807   -0.456700
   3 O     6.0000    0    15.999    9.339333   -0.078552   -0.722605
   4 H     1.0000    0     1.008    2.206996    4.410035    0.761142
   5 H     1.0000    0     1.008    2.283172    1.281459    1.938016
   6 H     1.0000    0     1.008    1.946545    1.824629   -1.342942
   7 H     1.0000    0     1.008    6.654988    3.227483    1.803732
   8 H     1.0000    0     1.008    6.317626    3.760876   -1.469855
   9 H     1.0000    0     1.008    6.169351   -1.497937    1.102276
  10 H     1.0000    0     1.008    5.829974   -0.956803   -2.209770
  11 H     1.0000    0     1.008    9.909669   -1.764768   -0.913398

--------------------------------
INTERNAL COORDINATES (ANGSTROEM)
--------------------------------
 C      0   0   0     0.000000000000     0.00000000     0.00000000
 C      1   0   0     1.511743490497     0.00000000     0.00000000
 C      2   1   0     1.527548987355   110.64197304     0.00000000
 O      3   2   1     1.410587614819   107.54357070   179.69508188
 H      1   2   3     1.097406462759   111.10939387   179.87125419
 H      1   2   3     1.098173675211   111.72324164    59.96726854
 H      1   2   3     1.098169915483   111.71000708   299.77110967
 H      2   1   3     1.107723788909   110.17001606   238.00214937
 H      2   1   3     1.107759666242   110.14111424   121.95731429
 H      3   2   1     1.107649914448   110.75996068   300.52595088
 H      3   2   1     1.107826614030   110.75149063    59.51787705
 H      4   3   2     0.947361471474   106.48273364   175.31238185

---------------------------
INTERNAL COORDINATES (A.U.)
---------------------------
 C      0   0   0     0.000000000000     0.00000000     0.00000000
 C      1   0   0     2.856781181778     0.00000000     0.00000000
 C      2   1   0     2.886649242249   110.64197304     0.00000000
 O      3   2   1     2.665624279909   107.54357070   179.69508188
 H      1   2   3     2.073797672210   111.10939387   179.87125419
 H      1   2   3     2.075247493631   111.72324164    59.96726854
 H      1   2   3     2.075240388774   111.71000708   299.77110967
 H      2   1   3     2.093294593068   110.17001606   238.00214937
 H      2   1   3     2.093362391401   110.14111424   121.95731429
 H      3   2   1     2.093154990569   110.75996068   300.52595088
 H      3   2   1     2.093488904385   110.75149063    59.51787705
 H      4   3   2     1.790253730915   106.48273364   175.31238185

------------------------------------------------------------------------------
                           ORCA NDO INTEGRAL CALCULATION
------------------------------------------------------------------------------

--------------
NDO PARAMETERS
--------------

Gamma integral treatment              ... MOPAC
Nuclear repulsuion treatment          ... AM1-style
Interaction factors:
s-s (sigma) =    1.0000
s-p (sigma) =    1.0000
s-d (sigma) =    1.0000
p-p (sigma) =    1.0000  p-p(pi) =    1.0000
p-d (sigma) =    1.0000  p-d(pi) =    1.0000
d-d (sigma) =    1.0000  d-d(pi) =    1.0000 d-d (delta) =    1.0000

--------------------------
Parameters for Element H :
--------------------------
 One-electron parameters (in eV)
  U(s)  =   -13.073321 Beta(s) =     5.626512 Neff(s) =     1.000000
 One-center electron repulsion parameters (in eV)
  G(s,s)=    14.794208
--------------------------
Parameters for Element C :
--------------------------
 One-electron parameters (in eV)
  U(s)  =   -47.270320 Beta(s) =    11.910015 Neff(s) =     2.000000
  U(p)  =   -36.266918 Beta(p) =     9.802755 Neff(p) =     2.000000 
 One-center electron repulsion parameters (in eV)
  G(s,s)=    11.200708
  G(s,p)=    10.265027 G(p,p)  =     9.627141
 Slater-Condon parameters (in eV)
 F2(p,p)=     7.3072 G1(s,p)=    6.8729
--------------------------
Parameters for Element O :
--------------------------
 One-electron parameters (in eV)
  U(s)  =   -86.993002 Beta(s) =    45.202651 Neff(s) =     2.000000
  U(p)  =   -71.879580 Beta(p) =    24.752515 Neff(p) =     4.000000 
 One-center electron repulsion parameters (in eV)
  G(s,s)=    15.755760
  G(s,p)=    10.621160 G(p,p)  =    12.822069
 Slater-Condon parameters (in eV)
 F2(p,p)=     5.1997 G1(s,p)=    1.7816

 Number of atoms                    ....   12
 Number of basis functions          ....   24

 Overlap integrals                  .... done
 One electron matrix                .... done
 Nuclear repulsion                  .... done
 Integral list                      .... done
 Electron-electron repulsion        .... done

Diagonalization of the overlap matrix:
Smallest eigenvalue                        ... 1.639e-01
Time for diagonalization                   ...    0.000 sec
Threshold for overlap eigenvalues          ... 1.000e-08
Number of eigenvalues below threshold      ... 0
Time for construction of square roots      ...    0.000 sec
Total time needed                          ...    0.001 sec


 InCore treatment chosen:
   Memory dedicated               ...    1024 MB
   Memory needed                  ...      0 MB
   Number of tiny    integrals    ...       0
   Number of small   integrals    ...       3
   Number of regular integrals    ...    1017

--------------
SCF ITERATIONS
--------------
[...]
     16       0.028214  -0.175353  -0.017602   0.134885  -0.028304   0.014253
     17      -0.101062  -0.072529   0.024677   0.053705  -0.015282  -0.050200
     18       0.389050   0.270190  -0.164649  -0.267288   0.252324   0.372291
     19       0.024552  -0.179929  -0.012522   0.136194  -0.022790   0.026942
     20      -0.184813  -0.046396   0.063431   0.048440  -0.055370  -0.127332
     21       0.315588   0.091398  -0.046552  -0.190273  -0.293973  -0.254169
     22      -0.088565   0.033408   0.197670   0.396188   0.057381  -0.152490
     23      -0.100078  -0.013119  -0.018742   0.046317   0.066348   0.062697
     24      -0.327546   0.074920   0.040197  -0.197999  -0.280905   0.337855
     25       0.100670   0.043436  -0.199042   0.367690   0.125372   0.120735
     26      -0.004309   0.008670  -0.094172   0.110431   0.038901   0.053252
     27       0.159164   0.045950   0.654169   0.056123   0.498804   0.244370
     28       0.322983  -0.171780  -0.144520  -0.151669  -0.198304  -0.303856
     29       0.209483  -0.043907  -0.022827  -0.045374  -0.053518  -0.128828
     30      -0.123424   0.059741  -0.574057  -0.002993   0.527816  -0.288224
     31      -0.372086  -0.200266   0.096960  -0.161452  -0.142309   0.327110
     32       0.124859  -0.020187   0.140174  -0.000757  -0.126926   0.032948
     33      -0.017648   0.225927  -0.050216   0.426637  -0.235207   0.012606
     34      -0.010561   0.061337  -0.025281   0.136890  -0.067761   0.002297
     35       0.028247  -0.017762   0.063227  -0.026342   0.009333   0.015645
                 18         19         20         21         22         23    
      0      -0.016477  -0.138315   0.011100   0.008615   0.023567   0.096555
      1       0.005072  -0.027779  -0.049526   0.014709  -0.006130   0.004789
      2      -0.045210   0.010040  -0.009393   0.001437  -0.003393  -0.008839
      3       0.008356   0.135254  -0.085603   0.114894   0.011136   0.034481
      4       0.005816   0.020039   0.119276  -0.047077  -0.035520   0.037668
      5      -0.028848  -0.001014   0.027932  -0.019874  -0.007196   0.002844
      6       0.011178   0.074440  -0.162050   0.008201  -0.138833  -0.083666
      7      -0.007956   0.039055  -0.003824  -0.021204  -0.078325   0.047000
      8       0.068989  -0.008857   0.020024   0.000379   0.002747   0.014603
      9      -0.005769  -0.105375   0.120267   0.029006   0.060015   0.017909
     10      -0.000522  -0.001835   0.023368   0.049642   0.013802  -0.021623
     11       0.003238   0.008440  -0.011645   0.001252  -0.004868  -0.003938
     12      -0.008194  -0.105424   0.317445  -0.271950  -0.113449  -0.273416
     13      -0.002991  -0.013508   0.058176  -0.073662  -0.046933  -0.111755
     14       0.010836   0.012941  -0.021921   0.016129   0.003873   0.007387
     15       0.102958  -0.273981   0.036249  -0.199980  -0.078353  -0.358573
     16       0.008024   0.038963   0.006299   0.053092   0.054478   0.032877
     17       0.002328   0.010353   0.033203  -0.034448   0.010195  -0.128681
     18      -0.146330  -0.274374   0.028906  -0.187548  -0.076899  -0.326668
     19      -0.007143   0.031281   0.016885   0.032410   0.052247  -0.018790
     20       0.029549   0.061609  -0.035612   0.088096   0.023061   0.200111
     21       0.509350   0.376995   0.274527  -0.244754   0.016604  -0.203837
     22      -0.414706  -0.068069  -0.103260   0.224188   0.271032  -0.353284
     23      -0.104562  -0.083688  -0.058048   0.049565  -0.121235   0.256739
     24      -0.432720   0.457438   0.273909  -0.245341   0.047719  -0.261053
     25       0.384590  -0.171631  -0.103608   0.225270   0.221608  -0.262172
     26       0.126130  -0.047867  -0.030635   0.074530   0.195335  -0.309984
     27       0.152097   0.361793   0.139835  -0.160761   0.343605   0.157937
     28      -0.242659  -0.028429  -0.419386  -0.189159   0.291924  -0.045657
     29      -0.082873   0.009776  -0.212352  -0.160155   0.406033   0.002840
     30      -0.116735   0.444359   0.198257  -0.103150   0.271062   0.144690
     31       0.249243  -0.105605  -0.464301  -0.233878   0.416401  -0.038866
     32       0.019727  -0.107822   0.032637   0.116442  -0.353263  -0.046985
     33      -0.005299  -0.164832  -0.359320  -0.616315  -0.122067   0.272212
     34      -0.001010  -0.027016  -0.147261  -0.187820  -0.050243   0.074906
     35       0.007877   0.008732   0.018052   0.045135   0.006718  -0.021504
                 24         25         26         27         28         29    
      0       0.007086   0.010400   0.028709  -0.175433  -0.000093  -0.000506
      1      -0.009300  -0.074939   0.009859   0.009856   0.000153   0.000812
      2       0.073519  -0.010607  -0.001594   0.019542  -0.000922  -0.004980
      3       0.000082  -0.002203  -0.000902   0.183736   0.001161   0.009085
      4      -0.001025   0.007217  -0.127811  -0.038173  -0.001875  -0.014583
      5       0.002340   0.001518  -0.020415  -0.024810   0.011474   0.089414
      6       0.000007   0.001915  -0.077534  -0.118026  -0.009214   0.001110
      7       0.000010   0.006066   0.149173   0.053302   0.015305  -0.002061
      8       0.000036   0.000660   0.029238   0.020036  -0.092267   0.011744
      9      -0.000003  -0.001959   0.000375   0.029006  -0.000137   0.000040
     10       0.000092  -0.001786  -0.041753  -0.008834  -0.000127  -0.000015
     11      -0.000310   0.000009  -0.004165  -0.003752   0.000361   0.000153
     12      -0.063688  -0.314512  -0.168214   0.315057  -0.000023  -0.000111
     13       0.125360  -0.136571  -0.056420   0.159654   0.000035   0.000205
     14      -0.735834  -0.017793   0.010527  -0.007177  -0.000148  -0.001071
     15       0.220059   0.166527  -0.062882   0.395948  -0.002539  -0.005282
     16      -0.384499   0.452749   0.032888  -0.104050  -0.003267  -0.024958
     17      -0.187443   0.427889  -0.010164   0.109839   0.005190   0.030329
     18      -0.245678   0.076665  -0.057026   0.362387   0.003595   0.011918
     19       0.375438   0.598101   0.023185  -0.049927   0.001539   0.014262
     20       0.010631  -0.286967   0.032149  -0.212430   0.005348   0.035006
     21       0.003751  -0.011493   0.095115  -0.334485  -0.042017  -0.303977
     22       0.001762  -0.073535   0.384050  -0.068733  -0.027867  -0.262127
     23       0.001290   0.034265  -0.248914   0.230065  -0.074355  -0.569946
     24       0.000637  -0.020511   0.154931  -0.375609   0.027461   0.194521
     25       0.004723  -0.059372   0.287258  -0.003680   0.051117   0.437807
     26       0.008549  -0.052395   0.332477  -0.169737  -0.068516  -0.506850
     27      -0.009624  -0.003807   0.057892   0.168884  -0.162320   0.019029
     28       0.005969  -0.009888  -0.231191  -0.070470  -0.444630   0.062362
     29       0.003702  -0.013691  -0.226647   0.001239   0.516042  -0.063820
     30       0.009808  -0.001210   0.079870   0.159774   0.274802  -0.032154
     31      -0.007132  -0.014408  -0.291105  -0.062055   0.263412  -0.038606
     32      -0.000115   0.010386   0.127998  -0.056125   0.582720  -0.072034
     33      -0.000704   0.018951   0.486908   0.155069   0.000285  -0.000036
     34      -0.000182   0.005943   0.142033   0.041763  -0.000176  -0.000067
     35      -0.000198  -0.001403  -0.037458  -0.012115   0.001698  -0.000068
                 30         31         32         33         34         35    
      0       0.000029   0.000564  -0.008804  -0.004674  -0.043811   0.000004
      1      -0.000300  -0.008858   0.014744  -0.087416   0.004728  -0.000008
      2      -0.000045  -0.001489  -0.087174  -0.014319   0.005154  -0.000001
      3       0.001135   0.037234  -0.000485  -0.003933  -0.000626   0.000201
      4       0.000313   0.050941   0.000864  -0.005511   0.000426  -0.000244
      5      -0.000250   0.004540  -0.005050  -0.000525   0.000131  -0.000062
      6      -0.034176   0.000359   0.000018  -0.000732   0.000251  -0.001660
      7      -0.053644   0.002304  -0.000021   0.000101   0.000148   0.001462
      8      -0.005449   0.000352   0.000130   0.000086  -0.000001   0.000345
      9       0.000917  -0.000281  -0.000000   0.000090   0.000005  -0.019774
     10       0.001347   0.000459   0.000000   0.000000  -0.000023   0.058079
     11       0.000073   0.000105  -0.000000  -0.000010  -0.000003   0.007444
     12       0.001204  -0.021293  -0.003415  -0.259736   0.174285   0.000007
     13      -0.002154   0.077732   0.004124   0.720023  -0.576270  -0.000031
     14      -0.000473   0.014893  -0.046743   0.143938  -0.112018  -0.000003
     15       0.001788   0.009956  -0.208932   0.121055   0.135242  -0.000034
     16       0.000602   0.019878  -0.429629   0.219216   0.333792   0.000003
     17      -0.002336  -0.030998   0.518542  -0.348740  -0.425702   0.000012
     18       0.002204   0.016364   0.317693   0.197387   0.227011  -0.000024
     19      -0.000151   0.009289   0.249061   0.104252   0.186812   0.000017
     20       0.001900   0.032888   0.571488   0.375441   0.474926  -0.000011
     21      -0.007737  -0.282451   0.021947   0.032376  -0.004121   0.000168
     22      -0.004097  -0.220541   0.014400   0.020711  -0.001750  -0.000444
     23      -0.012871  -0.603935   0.029292   0.061102  -0.004648  -0.000583
     24      -0.005920  -0.165238  -0.016516   0.020205  -0.003195   0.000282
     25      -0.009912  -0.407894  -0.024160   0.039603  -0.003262  -0.000650
     26       0.014158   0.546758   0.027804  -0.056233   0.004586   0.000401
     27       0.136974  -0.001847   0.001540  -0.000804  -0.001182  -0.001427
     28       0.414773  -0.010048  -0.000002   0.001335  -0.001485  -0.002013
     29      -0.550878   0.012393  -0.001671  -0.000640   0.002463   0.002641
     30       0.259211  -0.004663  -0.001841  -0.000630  -0.001700  -0.002495
     31       0.226439  -0.005762   0.000457   0.001072  -0.000675  -0.000681
     32       0.618424  -0.014455  -0.001289   0.001156  -0.002526  -0.002938
     33      -0.008914  -0.001023  -0.000004  -0.000001   0.000088   0.334713
     34      -0.007837   0.001153   0.000012  -0.000133   0.000033  -0.932452
     35      -0.000639   0.000240  -0.000053  -0.000011  -0.000002  -0.121023


-----------
IR SPECTRUM
-----------

 Mode    freq (cm**-1)   T**2         TX         TY         TZ
-------------------------------------------------------------------
   6:        73.35  144.410069  ( -1.295142   1.800196 -11.810672)
   7:       165.65   40.433563  ( -0.493989   0.231134  -6.335307)
   8:       192.00    2.286789  (  0.131160  -0.141886   1.499818)
   9:       318.26   41.196286  ( -2.190311   5.929541   1.113271)
  10:       469.50  341.816966  (-14.635458  10.825503   3.229371)
  11:       786.80  242.951276  ( -1.535632   2.561356 -15.298123)
  12:       911.85    9.112082  (  0.317994  -0.483702   2.962599)
  13:       939.28   71.767934  ( -0.769205   8.289087   1.570764)
  14:      1037.30   10.546545  ( -1.421850   1.720320  -2.359107)
  15:      1104.01   89.724731  (  0.006135  -9.347679  -1.531531)
  16:      1106.99  165.305656  (-12.544585   1.971105   2.013405)
  17:      1127.57   12.252917  ( -0.093393  -0.031990   3.499024)
  18:      1141.12    8.449444  ( -2.343025   1.264486   1.166514)
  19:      1149.00  1095.630303  (-28.982897  15.092374   5.276572)
  20:      1256.68   45.279581  (  0.599897   6.653864   0.803617)
  21:      1317.58  209.884049  ( 13.241538   5.848702  -0.581723)
  22:      1377.94  178.763086  (  0.162513 -13.164531  -2.330622)
  23:      1384.45  203.058658  ( 13.522467   4.454007  -0.602804)
  24:      1408.86  105.615053  (  0.969750  -1.334917  10.143601)
  25:      1409.75   92.838479  (  1.121009  -9.482856  -1.287347)
  26:      1420.82   10.945292  ( -0.152564  -3.277847  -0.421588)
  27:      1434.37  125.943530  (-10.216100   4.315753   1.717296)
  28:      2906.35  304.200345  (  1.760406  -2.950584  17.099572)
  29:      2960.83  622.137878  ( -2.484050   4.130128 -24.472626)
  30:      2967.79  1873.525051  ( -0.851820  42.688969   7.102915)
  31:      3042.61  2193.066968  (  0.454117 -46.206909  -7.601470)
  32:      3076.59  574.105518  (  2.282329  -3.963124  23.519995)
  33:      3083.34  699.677669  (  5.518593  25.594558   3.760503)
  34:      3180.41  14583.410481  (111.348261 -42.996211 -18.338511)
  35:      3908.94  3625.180627  ( 50.122016 -31.999355  -9.434270)

The first frequency considered to be a vibration is 6
The total number of vibrations considered is 30


--------------------------
THERMOCHEMISTRY AT 298.15K
--------------------------

Temperature         ... 298.15 K
Pressure            ... 1.00 atm
Total Mass          ... 60.10 AMU

Throughout the following assumptions are being made:
  (1) The electronic state is orbitally nondegenerate
  (2) There are no thermally accessible electronically excited states
  (3) Hindered rotations indicated by low frequency modes are not
      treated as such but are treated as vibrations and this may
      cause some error
  (4) All equations used are the standard statistical mechanics
      equations for an ideal gas
  (5) All vibrations are strictly harmonic

freq.      73.35  E(vib)   ...       0.49 
freq.     165.65  E(vib)   ...       0.39 
freq.     192.00  E(vib)   ...       0.36 
freq.     318.26  E(vib)   ...       0.25 
freq.     469.50  E(vib)   ...       0.16 
freq.     786.80  E(vib)   ...       0.05 
freq.     911.85  E(vib)   ...       0.03 
freq.     939.28  E(vib)   ...       0.03 
freq.    1037.30  E(vib)   ...       0.02 
freq.    1104.01  E(vib)   ...       0.02 
freq.    1106.99  E(vib)   ...       0.02 
freq.    1127.57  E(vib)   ...       0.01 
freq.    1141.12  E(vib)   ...       0.01 
freq.    1149.00  E(vib)   ...       0.01 
freq.    1256.68  E(vib)   ...       0.01 
freq.    1317.58  E(vib)   ...       0.01 
freq.    1377.94  E(vib)   ...       0.01 
freq.    1384.45  E(vib)   ...       0.00 
freq.    1408.86  E(vib)   ...       0.00 
freq.    1409.75  E(vib)   ...       0.00 
freq.    1420.82  E(vib)   ...       0.00 
freq.    1434.37  E(vib)   ...       0.00 
freq.    2906.35  E(vib)   ...       0.00 
freq.    2960.83  E(vib)   ...       0.00 
freq.    2967.79  E(vib)   ...       0.00 
freq.    3042.61  E(vib)   ...       0.00 
freq.    3076.59  E(vib)   ...       0.00 
freq.    3083.34  E(vib)   ...       0.00 
freq.    3180.41  E(vib)   ...       0.00 
freq.    3908.94  E(vib)   ...       0.00 

------------
INNER ENERGY
------------

The inner energy is: U= E(el) + E(ZPE) + E(vib) + E(rot) + E(trans)
    E(el)   - is the total energy from the electronic structure calculation
              = E(kin-el) + E(nuc-el) + E(el-el) + E(nuc-nuc)
    E(ZPE)  - the the zero temperature vibrational energy from the frequency calculation
    E(vib)  - the the finite temperature correction to E(ZPE) due to population
              of excited vibrational states
    E(rot)  - is the rotational thermal energy
    E(trans)- is the translational thermal energy

Summary of contributions to the inner energy U:
Electronic energy                ...    -28.41482339 Eh
Zero point energy                ...      0.10629924 Eh      66.70 kcal/mol
Thermal vibrational correction   ...      0.00301515 Eh       1.89 kcal/mol
Thermal rotational correction    ...      0.00141627 Eh       0.89 kcal/mol
Thermal translational correction ...      0.00141627 Eh       0.89 kcal/mol
-----------------------------------------------------------------------
Total thermal energy                    -28.30267645 Eh


Summary of corrections to the electronic energy:
(perhaps to be used in another calculation)
Total thermal correction                  0.00584770 Eh       3.67 kcal/mol
Non-thermal (ZPE) correction              0.10629924 Eh      66.70 kcal/mol
-----------------------------------------------------------------------
Total correction                          0.11214694 Eh      70.37 kcal/mol


--------
ENTHALPY
--------

The enthalpy is H = U + kB*T
                kB is Boltzmann's constant
Total free energy                 ...    -28.30267645 Eh 
Thermal Enthalpy correction       ...      0.00094421 Eh       0.59 kcal/mol
-----------------------------------------------------------------------
Total Enthalpy                    ...    -28.30173224 Eh


Vibrational entropy computed according to the QRRHO of S. Grimme
Chem.Eur.J. 2012 18 9955

check  

-------
ENTROPY
-------

The entropy contributions are T*S = T*(S(el)+S(vib)+S(rot)+S(trans)
     S(el)   - electronic entropy
     S(vib)  - vibrational entropy
     S(rot)  - rotational entropy
     S(trans)- translational entropy
The entropies will be listed as mutliplied by the temperature to get
units of energy

Electronic entropy                ...      0.00000000 Eh      0.00 kcal/mol
Vibrational entropy               ...      0.00527490 Eh      3.31 kcal/mol
Rotational entropy                ...      0.01050617 Eh      6.59 kcal/mol
Translational entropy             ...      0.01815004 Eh     11.39 kcal/mol
-----------------------------------------------------------------------
Final entropy term                ...      0.03393111 Eh     21.29 kcal/mol


CAUTION: The rotational entropy is not quite correctly treated here
         because it includes a symmetry number that is not yet correctly
         implemented in ORCA!
For a nonlinear molecule the correct rotational entropy is:
    S(rot) = R*(ln(qrot/sn)+1.5)
    R    = 8.31441 J/mol/K = 1.987191683e-3 kcal/mol/K
    qrot = 45519.4792451
    sn is the rotational symmetry number. We have assumed 3 here
       if it is different for your molecule then you should correct
       the printed rotational entropy by manually evaluating the equation
       as given above

For convenience we print out the resulting values for sn=1 - 12:
 sn= 1  qrot/sn=   45519.4792 T*S(rot)=     7.24 kcal/mol T*S(tot)=    21.94 kcal/mol
 sn= 2  qrot/sn=   22759.7396 T*S(rot)=     6.83 kcal/mol T*S(tot)=    21.53 kcal/mol
 sn= 3  qrot/sn=   15173.1597 T*S(rot)=     6.59 kcal/mol T*S(tot)=    21.29 kcal/mol
 sn= 4  qrot/sn=   11379.8698 T*S(rot)=     6.42 kcal/mol T*S(tot)=    21.12 kcal/mol
 sn= 5  qrot/sn=    9103.8958 T*S(rot)=     6.29 kcal/mol T*S(tot)=    20.99 kcal/mol
 sn= 6  qrot/sn=    7586.5799 T*S(rot)=     6.18 kcal/mol T*S(tot)=    20.88 kcal/mol
 sn= 7  qrot/sn=    6502.7827 T*S(rot)=     6.09 kcal/mol T*S(tot)=    20.79 kcal/mol
 sn= 8  qrot/sn=    5689.9349 T*S(rot)=     6.01 kcal/mol T*S(tot)=    20.71 kcal/mol
 sn= 9  qrot/sn=    5057.7199 T*S(rot)=     5.94 kcal/mol T*S(tot)=    20.64 kcal/mol
 sn=10  qrot/sn=    4551.9479 T*S(rot)=     5.88 kcal/mol T*S(tot)=    20.58 kcal/mol
 sn=11  qrot/sn=    4138.1345 T*S(rot)=     5.82 kcal/mol T*S(tot)=    20.52 kcal/mol
 sn=12  qrot/sn=    3793.2899 T*S(rot)=     5.77 kcal/mol T*S(tot)=    20.47 kcal/mol


-------------------
GIBBS FREE ENTHALPY
-------------------

The Gibbs free enthalpy is G = H - T*S

Total enthalpy                    ...    -28.30173224 Eh 
Total entropy correction          ...     -0.03393111 Eh    -21.29 kcal/mol
-----------------------------------------------------------------------
Final Gibbs free enthalpy         ...    -28.33566336 Eh

For completeness - the Gibbs free enthalpy minus the electronic energy
G-E(el)                           ...      0.07916004 Eh     49.67 kcal/mol


Total Time for Numerical Frequencies  :        48.402 sec

Timings for individual modules:

Sum of individual times         ...       34.094 sec (=   0.568 min)
STO integral calculation        ...       10.161 sec (=   0.169 min)  29.8 %
SCF iterations                  ...       13.335 sec (=   0.222 min)  39.1 %
SCF Gradient evaluation         ...        0.881 sec (=   0.015 min)   2.6 %
Geometry relaxation             ...        9.717 sec (=   0.162 min)  28.5 %
                             ****ORCA TERMINATED NORMALLY****
TOTAL RUN TIME: 0 days 0 hours 1 minutes 31 seconds 255 msec
